<?xml version="1.0"?>
<VTKFile type="UnstructuredGrid" version="0.1" byte_order="LittleEndian" header_type="UInt32" compressor="vtkZLibDataCompressor">
  <UnstructuredGrid>
    <Piece NumberOfPoints="173" NumberOfCells="190">
      <PointData>
        <DataArray type="Float32" Name="XLAT" format="ascii" RangeMin="-79.09431457519531" RangeMax="83.4140853881836">
          -36.434967041015625 -35.26168441772461 -33.08713150024414 -30.20655059814453 -26.97258186340332 -23.742050170898438
          -20.84287452697754 -18.553916931152344 -17.08961296081543 -16.585935592651367 -17.08961296081543 -18.553916931152344
          -20.842872619628906 -23.742053985595703 -26.97257423400879 -30.20655059814453 -33.087127685546875 -35.26167678833008
          -36.434967041015625 -55.956668853759766 -51.33585739135742 -43.662967681884766 -34.554622650146484 -25.11931037902832
          -16.129915237426758 -8.222798347473145 -1.9903244972229004 2.0243630409240723 3.414057970046997 2.024358034133911
          -1.9903210401535034 -8.222794532775879 -16.129924774169922 -25.11929702758789 -34.55461502075195 -43.662960052490234
          -51.33584976196289 -55.956668853759766 -74.44549560546875 -62.8924674987793 -48.732810974121094 -34.25332260131836
          -20.135629653930664 -6.8634819984436035 4.991708278656006 14.650642395019531 21.115882873535156 23.414058685302734
          21.115869522094727 14.650650978088379 4.991714954376221 -6.8634934425354 -20.135608673095703 -34.2533073425293
          -48.7327995300293 -62.892452239990234 -74.44549560546875 -79.09431457519531 -63.14070510864258 -46.23723602294922
          -29.381717681884766 -12.853670120239258 3.05084228515625 17.85150146484375 30.668725967407227 39.92125701904297
          43.414058685302734 39.92124557495117 30.66873550415039 17.851512908935547 3.050827741622925 -12.853643417358398
          -29.38170051574707 -46.23722457885742 -63.140689849853516 -79.09431457519531 -61.89278030395508 -51.857933044433594
          -37.2769660949707 -21.05241584777832 -4.235024452209473 12.68136215209961 29.282487869262695 44.88612747192383
          57.75886154174805 63.41405487060547 57.75885009765625 44.886131286621094 29.28249740600586 12.68134593963623
          -4.234997272491455 -21.052400588989258 -37.27695846557617 -51.857913970947266 -61.89278030395508 -42.51667404174805
          -35.87250518798828 -24.58701515197754 -10.631433486938477 4.799738883972168 21.060726165771484 37.78398513793945
          54.70705032348633 71.41814422607422 83.4140853881836 71.41812133789062 54.707061767578125 37.78399658203125
          21.060710906982422 4.799764633178711 -10.631420135498047 -24.587007522583008 -35.872493743896484 -42.51667404174805
          -22.83197021484375 -18.349164962768555 -10.154090881347656 0.7158156037330627 13.361971855163574 27.119108200073242
          41.47991180419922 55.92148208618164 69.32550048828125 76.58592987060547 69.32546997070312 55.92149353027344
          41.47991943359375 27.119094848632812 13.361992835998535 0.7158257961273193 -10.15408706665039 -18.349159240722656
          -22.83197021484375 -3.064091444015503 -0.3243042230606079 4.861444473266602 12.003402709960938 20.52749252319336
          29.82451057434082 39.20808410644531 47.76811599731445 54.143428802490234 56.585933685302734 54.14342498779297
          47.76811981201172 39.208091735839844 29.824501037597656 20.527507781982422 12.003410339355469 4.861447811126709
          -0.3242990970611572 -3.064091444015503 16.712594985961914 17.70819664001465 19.607032775878906 22.232275009155273
          25.335437774658203 28.61105728149414 31.713668823242188 34.28321838378906 35.98786926269531 36.585941314697266
          35.98786926269531 34.28321838378906 31.713668823242188 28.611055374145508 25.3354434967041 22.232276916503906
          19.60703468322754 17.70819854736328 16.712594985961914 -26.36594009399414 26.365938186645508
        </DataArray>
        <DataArray type="Float32" Name="XLONG" format="ascii" RangeMin="-179.48455810546875" RangeMax="179.36892700195312">
          8.371694564819336 4.598247051239014 1.636704444885254 -0.19567124545574188 -0.7890507578849792 -0.1893191784620285
          1.458791732788086 3.947890043258667 7.02587366104126 10.40759563446045 13.789331436157227 16.86730194091797
          19.356399536132812 21.0045108795166 21.6042423248291 21.010862350463867 19.17848777770996 16.216943740844727
          12.443497657775879 1.9541033506393433 -11.982322692871094 -20.156938552856445 -23.3697509765625 -22.982751846313477
          -19.89471435546875 -14.612192153930664 -7.488495826721191 1.058406114578247 10.407608985900879 19.756799697875977
          28.303688049316406 35.42738342285156 40.70991897583008 43.797943115234375 44.184940338134766 40.972129821777344
          32.79752731323242 18.861101150512695 -17.639755249023438 -42.73664093017578 -48.295867919921875 -47.666099548339844
          -43.994873046875 -38.006710052490234 -29.664302825927734 -18.691835403442383 -5.056703090667725 10.407608985900879
          25.87192153930664 39.507015228271484 50.4794807434082 58.8218994140625 64.81006622314453 68.48129272460938
          69.11106872558594 63.55183410644531 38.45497512817383 -114.75559997558594 -87.73682403564453 -77.85042572021484
          -70.55171203613281 -63.44577407836914 -55.40792465209961 -45.33025360107422 -31.738794326782227 -13.035893440246582
          10.407608985900879 33.85112762451172 52.55397415161133 66.14543914794922 76.22313690185547 84.26097106933594
          91.36691284179688 98.6656265258789 108.55200958251953 135.57078552246094 -149.14385986328125 -119.1825180053711
          -101.98352813720703 -90.6988525390625 -81.71620178222656 -73.12652587890625 -63.29389953613281 -49.69354248046875
          -27.0836238861084 10.407623291015625 47.89887237548828 70.50874328613281 84.10909271240234 93.94172668457031
          102.53137969970703 111.5140380859375 122.79872131347656 139.99766540527344 169.9590301513672 -157.4794921875
          -136.0926513671875 -120.1026840209961 -108.47928619384766 -99.57796478271484 -92.13240051269531 -85.09880828857422
          -77.01148223876953 -62.82917022705078 10.407705307006836 83.64440155029297 97.8266830444336 105.91400909423828
          112.94760131835938 120.39317321777344 129.29443359375 140.91786193847656 156.90782165527344 178.294677734375
          -161.72935485839844 -147.0028076171875 -134.66311645507812 -125.03866577148438 -117.90226745605469 -113.04633331298828
          -110.72171783447266 -112.48270416259766 -124.80217742919922 -169.59246826171875 145.61732482910156 133.29794311523438
          131.53692626953125 133.86154174804688 138.71746826171875 145.85385131835938 155.47828674316406 167.81797790527344
          -177.45547485351562 -164.86500549316406 -155.8251953125 -147.92674255371094 -141.679931640625 -137.44650268554688
          -135.62660217285156 -136.89456176757812 -142.40428161621094 -153.5015106201172 -169.59242248535156 174.3166961669922
          163.21949768066406 157.7097625732422 156.44178771972656 158.26170349121094 162.49513244628906 168.7418975830078
          176.640380859375 -174.31980895996094 -167.88230895996094 -164.615234375 -161.79786682128906 -159.7002410888672
          -158.55374145507812 -158.5375213623047 -159.75291442871094 -162.17576599121094 -165.5966033935547 -169.59242248535156
          -173.5882110595703 -177.00904846191406 -179.43190002441406 179.3527069091797 179.36892700195312 -179.48455810546875
          -177.38693237304688 -174.56954956054688 -171.302490234375 10.40759563446045 -169.59239196777344
        </DataArray>
        <DataArray type="Float32" Name="LU_INDEX" format="ascii" RangeMin="1" RangeMax="18">
          17 17 17 17 17 17
          17 17 17 17 9 9
          7 7 7 7 17 17
          17 15 17 17 17 17
          17 17 17 17 2 2
          2 9 17 17 17 17
          17 17 15 15 17 17
          9 17 17 17 16 16
          16 16 17 17 17 17
          17 15 15 15 17 17
          17 2 2 17 17 17
          12 16 16 17 17 17
          17 17 15 15 17 17
          17 17 17 17 17 17
          17 1 12 10 12 17
          17 17 17 17 17 17
          17 17 17 17 17 4
          18 17 15 17 5 10
          5 17 17 7 17 17
          17 17 17 17 17 17
          10 1 18 15 18 3
          17 17 17 17 17 17
          17 17 17 17 17 17
          17 17 17 17 17 17
          17 17 17 17 17 17
          17 17 17 17 17 17
          17 17 17 17 17 17
          17 17 17 17 17 17
          17 17 17 14.052631378173828 17
        </DataArray>
        <DataArray type="Float32" Name="VAR_SSO" format="ascii" RangeMin="0" RangeMax="87000.1875">
          0 0 0 0 0 0
          29.076244354248047 0 0 173.46023559570312 7280.64453125 1713.4564208984375
          1692.744140625 1739.8660888671875 7091.27685546875 7226.77197265625 4823.7236328125 0
          0 4.797351837158203 0 25.716461181640625 0 0.2496993988752365
          0 2.085860013961792 213.5469970703125 491.6503601074219 4837.2939453125 1371.9881591796875
          9234.8681640625 8803.390625 4278.06494140625 1774.9337158203125 0 33.657005310058594
          0 0 0 279.79180908203125 83.99690246582031 788.7703247070312
          4536.09375 1513.4990234375 0 856.877685546875 1189.1771240234375 1680.3717041015625
          2123.79736328125 16667.064453125 1422.168701171875 3.771632671356201 227.49847412109375 2.434486150741577
          144.08908081054688 0 0 0 0 14436.033203125
          21332.263671875 20417.845703125 3575.385498046875 0 108.07470703125 4956.90673828125
          17120.349609375 26783.99609375 17547.533203125 1307.7265625 1504.5396728515625 0
          0 0 0 0 0 0
          0 0 22447.330078125 15440.55859375 0.29663607478141785 370.9743347167969
          81.44950103759766 1810.5963134765625 818.0090942382812 18975.755859375 58918.20703125 9100.5390625
          4607.1787109375 210.56690979003906 118.09986114501953 0 39.24305725097656 0
          0.005383153911679983 1.0616005659103394 0 152.39044189453125 12764.6376953125 1837.3494873046875
          2981.228271484375 0 0 59.46195602416992 22246.48046875 49258.73046875
          26117.66796875 10170.11328125 4491.7734375 968.1251220703125 1884.122314453125 6880.87109375
          2.9041454792022705 56.10591506958008 37.81855010986328 0 0.5218933820724487 11658.384765625
          25372.888671875 34467.859375 87000.1875 0 9830.3427734375 10086.8408203125
          7919.501953125 1020.3629760742188 10.457804679870605 11677.62890625 3625.6650390625 496.5499572753906
          303.1634826660156 0.001306430553086102 0.03374908119440079 0 0 0
          0 85.04072570800781 1334.7139892578125 5023.85107421875 1058.7508544921875 2133.051025390625
          2624.426025390625 212.7364501953125 0 0.0001379120076308027 4.88595724105835 1.1568914651870728
          0.013057511299848557 0.00029291154351085424 0.0028214429039508104 0 0 3725.49609375
          0 0 0 0 0 0
          0 0 0 0.0014908683951944113 0 0
          0 0 0 1672.158935546875 196.0789794921875
        </DataArray>
        <DataArray type="Float32" Name="U" format="ascii" RangeMin="0" RangeMax="0">
          0 0 0 0 0 0
          0 0 0 0 0 0
          0 0 0 0 0 0
          0 0 0 0 0 0
          0 0 0 0 0 0
          0 0 0 0 0 0
          0 0 0 0 0 0
          0 0 0 0 0 0
          0 0 0 0 0 0
          0 0 0 0 0 0
          0 0 0 0 0 0
          0 0 0 0 0 0
          0 0 0 0 0 0
          0 0 0 0 0 0
          0 0 0 0 0 0
          0 0 0 0 0 0
          0 0 0 0 0 0
          0 0 0 0 0 0
          0 0 0 0 0 0
          0 0 0 0 0 0
          0 0 0 0 0 0
          0 0 0 0 0 0
          0 0 0 0 0 0
          0 0 0 0 0 0
          0 0 0 0 0 0
          0 0 0 0 0 0
          0 0 0 0 0 0
          0 0 0 0 0 0
          0 0 0 0 0
        </DataArray>
        <DataArray type="Float32" Name="V" format="ascii" RangeMin="1" RangeMax="1">
          1 1 1 1 1 1
          1 1 1 1 1 1
          1 1 1 1 1 1
          1 1 1 1 1 1
          1 1 1 1 1 1
          1 1 1 1 1 1
          1 1 1 1 1 1
          1 1 1 1 1 1
          1 1 1 1 1 1
          1 1 1 1 1 1
          1 1 1 1 1 1
          1 1 1 1 1 1
          1 1 1 1 1 1
          1 1 1 1 1 1
          1 1 1 1 1 1
          1 1 1 1 1 1
          1 1 1 1 1 1
          1 1 1 1 1 1
          1 1 1 1 1 1
          1 1 1 1 1 1
          1 1 1 1 1 1
          1 1 1 1 1 1
          1 1 1 1 1 1
          1 1 1 1 1 1
          1 1 1 1 1 1
          1 1 1 1 1 1
          1 1 1 1 1 1
          1 1 1 1 1 1
          1 1 1 1 1
        </DataArray>
        <DataArray type="Float32" Name="W" format="ascii" RangeMin="0" RangeMax="0">
          0 0 0 0 0 0
          0 0 0 0 0 0
          0 0 0 0 0 0
          0 0 0 0 0 0
          0 0 0 0 0 0
          0 0 0 0 0 0
          0 0 0 0 0 0
          0 0 0 0 0 0
          0 0 0 0 0 0
          0 0 0 0 0 0
          0 0 0 0 0 0
          0 0 0 0 0 0
          0 0 0 0 0 0
          0 0 0 0 0 0
          0 0 0 0 0 0
          0 0 0 0 0 0
          0 0 0 0 0 0
          0 0 0 0 0 0
          0 0 0 0 0 0
          0 0 0 0 0 0
          0 0 0 0 0 0
          0 0 0 0 0 0
          0 0 0 0 0 0
          0 0 0 0 0 0
          0 0 0 0 0 0
          0 0 0 0 0 0
          0 0 0 0 0 0
          0 0 0 0 0 0
          0 0 0 0 0
        </DataArray>
        <DataArray type="Float32" Name="PH" format="ascii" RangeMin="-412.7054443359375" RangeMax="204.21829223632812">
          -27.18332290649414 -20.172887802124023 -9.369903564453125 4.015180587768555 18.495521545410156 32.74275207519531
          45.906394958496094 57.36097717285156 66.34091186523438 71.82117462158203 72.64097595214844 67.85713195800781
          57.102027893066406 40.95463943481445 21.274959564208984 1.2174993753433228 -15.452520370483398 -25.87652587890625
          -29.45113754272461 -167.09561157226562 -120.87548828125 -60.799476623535156 8.708182334899902 63.88843536376953
          90.03329467773438 96.13540649414062 94.12788391113281 96.39241027832031 109.55863189697266 121.66094970703125
          116.45059204101562 97.10371398925781 85.94526672363281 67.00687408447266 22.816303253173828 -60.67845916748047
          -148.44161987304688 -190.57989501953125 -320.708251953125 -260.8793640136719 -67.5169677734375 41.57837677001953
          64.03770446777344 130.86241149902344 132.05784606933594 125.6292495727539 193.66421508789062 149.42779541015625
          189.7470245361328 142.79971313476562 134.33102416992188 122.75961303710938 54.46703338623047 -38.868350982666016
          -85.1324462890625 -149.92608642578125 -362.2315673828125 -304.1078186035156 -125.32061767578125 -43.81493377685547
          84.40158081054688 140.4161376953125 124.5994644165039 125.83464813232422 94.12068176269531 54.083499908447266
          100.15596008300781 73.81999969482422 163.31744384765625 151.1336669921875 144.4449462890625 110.42788696289062
          35.959659576416016 -81.40704345703125 -155.7759246826172 -412.7054443359375 -124.64852905273438 -97.05192565917969
          -5.394965171813965 35.168521881103516 49.76683044433594 153.42759704589844 139.38436889648438 36.609619140625
          -8.49685287475586 -10.685744285583496 21.34700584411621 113.10308837890625 186.6258544921875 152.40684509277344
          133.5565643310547 54.860496520996094 -30.694114685058594 -111.12124633789062 -138.8226318359375 -63.86813735961914
          26.9683837890625 42.11913299560547 85.43566131591797 118.75060272216797 156.2936248779297 104.11407470703125
          26.037403106689453 -67.78884887695312 -95.1531753540039 3.4128289222717285 86.70609283447266 174.43087768554688
          159.54928588867188 135.25320434570312 106.46826171875 104.6130599975586 24.80008888244629 -9.956830978393555
          51.40184020996094 105.80241394042969 119.45245361328125 109.03673553466797 153.6639862060547 166.51629638671875
          204.21829223632812 83.23257446289062 55.72102355957031 -104.89054870605469 -7.535190582275391 63.54401397705078
          109.82513427734375 144.0240478515625 150.22372436523438 148.35684204101562 131.37539672851562 75.56634521484375
          72.09712982177734 137.26547241210938 131.8885040283203 134.3577423095703 125.95305633544922 97.4322738647461
          69.60205078125 52.007598876953125 34.10477066040039 16.975177764892578 -13.009134292602539 -25.803264617919922
          10.47912883758545 84.74833679199219 144.0647735595703 156.6900177001953 147.85321044921875 145.23362731933594
          147.78448486328125 145.47940063476562 143.23190307617188 139.94097900390625 135.06373596191406 128.60940551757812
          120.89532470703125 112.84115600585938 105.95582580566406 101.8538818359375 101.52699279785156 104.8752670288086
          110.82618713378906 117.920166015625 124.94420623779297 131.22947692871094 136.53134155273438 140.73069763183594
          143.6526641845703 145.0999298095703 144.9601593017578 22.643360137939453 125.82574462890625
        </DataArray>
        <DataArray type="Float32" Name="PHB" format="ascii" RangeMin="2294.1181640625" RangeMax="20361.91796875">
          3325.998046875 3676.02880859375 4080.6484375 4287.978515625 4286.6552734375 4151.51025390625
          3998.4775390625 4058.10546875 4625.3125 5859.509765625 7451.1181640625 8812.0390625
          9449.716796875 9238.7685546875 8270.69140625 6778.392578125 5181.7802734375 3941.59423828125
          3326.751953125 4534.50537109375 2637.265869140625 2294.1181640625 2420.3828125 2464.2685546875
          2405.662109375 2377.787109375 2645.14453125 3966.9345703125 6003.64208984375 8728.1923828125
          10989.2109375 10198.734375 7385.021484375 5653.44482421875 4270.556640625 2834.58447265625
          3375.41650390625 4397.6806640625 13282.7080078125 2907.296630859375 2419.13330078125 4098.3115234375
          6305.7109375 4614.6650390625 2419.13330078125 2816.896484375 5182.736328125 7207.048828125
          8296.44140625 8180.7578125 4726.34765625 2419.402587890625 2419.20068359375 2419.13330078125
          2433.0068359375 9229.703125 16809.46875 12402.421875 3107.468505859375 2769.03369140625
          5080.04296875 7577.76220703125 5001.625 2419.13330078125 2419.74462890625 3626.83544921875
          5999.97802734375 8844.482421875 9598.7490234375 5086.90234375 2492.004150390625 2455.03125
          2419.13330078125 2419.13330078125 10275.7490234375 20361.91796875 4245.81689453125 2625.642822265625
          2699.279541015625 3262.73388671875 4065.048095703125 3267.83935546875 2419.13330078125 2419.13330078125
          3247.672607421875 3886.5908203125 6069.65673828125 12092.0009765625 12317.708984375 5359.9169921875
          2551.29296875 3400.905029296875 3382.417236328125 4740.46728515625 7416.54296875 2419.13330078125
          2419.13330078125 2419.14501953125 2419.13330078125 2420.50390625 4049.83984375 6619.822265625
          6453.7060546875 4847.4892578125 3135.68896484375 4435.7548828125 11650.9501953125 14239.619140625
          6733.314453125 2942.332763671875 3475.37939453125 3706.87158203125 2464.350830078125 3261.625732421875
          2419.718994140625 2420.694091796875 2419.1435546875 2419.13330078125 2419.15869140625 5396.486328125
          10181.6953125 8896.556640625 4733.6162109375 3384.314453125 5303.234375 7418.408203125
          6603.37451171875 3751.96484375 2419.13427734375 2628.9013671875 2822.43505859375 2692.25634765625
          2552.49365234375 2404.29443359375 2426.84375 2456.073974609375 2369.454345703125 2407.31982421875
          3530.316162109375 5084.93017578125 4536.2470703125 3048.77734375 2901.39453125 3571.6630859375
          3166.575439453125 2450.954345703125 2368.73486328125 2435.560546875 2431.85693359375 2409.892578125
          2421.404296875 2422.466796875 2423.691650390625 2428.172607421875 2433.85205078125 2438.38037109375
          2438.027587890625 2433.546875 2427.36181640625 2423.082275390625 2420.414306640625 2418.976806640625
          2418.401611328125 2418.365966796875 2418.5966796875 2418.93408203125 2419.04296875 2418.936279296875
          2418.86181640625 2419.396484375 2420.884033203125 5515.84619140625 2424.048828125
        </DataArray>
        <DataArray type="Float32" Name="T" format="ascii" RangeMin="-52.275909423828125" RangeMax="17.18328857421875">
          -18.8238525390625 -18.9588623046875 -18.269012451171875 -16.846466064453125 -14.850341796875 -12.38330078125
          -9.66705322265625 -6.949432373046875 -4.590362548828125 -2.8836669921875 -2.053192138671875 -2.216094970703125
          -3.36468505859375 -5.364471435546875 -7.96636962890625 -10.84466552734375 -13.6553955078125 -16.09088134765625
          -17.848236083984375 -30.60186767578125 -27.030792236328125 -22.043670654296875 -15.256378173828125 -9.2823486328125
          -6.36724853515625 -5.76898193359375 -5.49957275390625 -4.313568115234375 -1.1707763671875 1.593658447265625
          1.18511962890625 -1.558074951171875 -3.47564697265625 -5.2901611328125 -10.481964111328125 -19.176361083984375
          -28.10797119140625 -31.7557373046875 -42.041229248046875 -37.2315673828125 -20.885772705078125 -10.61431884765625
          -6.077606201171875 -0.2703857421875 -1.799224853515625 -1.0078125 15.12786865234375 9.478515625
          10.733734130859375 2.534820556640625 -1.019317626953125 -1.679229736328125 -8.540771484375 -18.34332275390625
          -21.809600830078125 -23.8843994140625 -45.89390563964844 -36.537017822265625 -22.33935546875 -17.815948486328125
          -0.24365234375 5.793182373046875 1.055999755859375 -2.497955322265625 -4.81683349609375 -8.1661376953125
          -2.24017333984375 -4.1636962890625 13.375396728515625 2.13494873046875 -0.4912109375 -2.731964111328125
          -10.723236083984375 -22.852691650390625 -23.131195068359375 -52.275909423828125 -23.87158203125 -22.474761962890625
          -15.578582763671875 -10.67108154296875 -6.800445556640625 1.1258544921875 -0.646453857421875 -8.9755859375
          -13.36761474609375 -14.994873046875 -9.182525634765625 4.239501953125 13.020904541015625 3.0989990234375
          -0.37255859375 -8.037353515625 -16.826019287109375 -22.6673583984375 -25.808074951171875 -19.971038818359375
          -12.013153076171875 -9.041015625 -5.634552001953125 -2.873382568359375 1.114776611328125 -0.406829833984375
          -8.33135986328125 -18.717498779296875 -20.2000732421875 -8.46142578125 -1.615447998046875 11.285552978515625
          4.647003173828125 1.209808349609375 -2.4542236328125 -1.60369873046875 -11.251800537109375 -15.024993896484375
          -7.84283447265625 -3.019439697265625 -2.345428466796875 -3.716461181640625 0.4705810546875 8.36004638671875
          17.18328857421875 -0.57745361328125 -4.553558349609375 -24.741455078125 -13.71893310546875 -4.3883056640625
          0.239410400390625 0.532012939453125 1.328460693359375 2.0638427734375 -0.522552490234375 -6.088714599609375
          -6.73516845703125 -0.65960693359375 -1.179351806640625 -1.041534423828125 -1.7803955078125 -4.66217041015625
          -7.335784912109375 -8.410491943359375 -10.502471923828125 -13.663299560546875 -16.4483642578125 -16.4046630859375
          -12.51416015625 -5.986358642578125 -1.045806884765625 0.3123779296875 0.0147705078125 0.42584228515625
          0.9232177734375 0.403289794921875 -0.6710205078125 -0.981719970703125 -1.501556396484375 -2.1658935546875
          -2.863433837890625 -3.511199951171875 -4.05010986328125 -4.426605224609375 -4.613433837890625 -4.604248046875
          -4.393463134765625 -4.009124755859375 -3.488250732421875 -2.87823486328125 -2.237823486328125 -1.631011962890625
          -1.12127685546875 -0.76483154296875 -0.605987548828125 -10.717175483703613 -2.6589066982269287
        </DataArray>
        <DataArray type="Float32" Name="THM" format="ascii" RangeMin="-52.24998474121094" RangeMax="24.940704345703125">
          -16.744873046875 -16.647003173828125 -15.623870849609375 -13.796783447265625 -11.3726806640625 -8.59832763671875
          -5.80572509765625 -3.27972412109375 -1.285980224609375 -0.039276123046875 0.324737548828125 -0.23199462890625
          -1.649932861328125 -3.777679443359375 -6.38812255859375 -9.20166015625 -11.9141845703125 -14.232513427734375
          -15.906341552734375 -29.685455322265625 -25.772247314453125 -20.0450439453125 -11.8651123046875 -4.759918212890625
          -0.955291748046875 0.38543701171875 0.48162841796875 1.770263671875 5.39532470703125 8.53082275390625
          7.625030517578125 3.743499755859375 0.8199462890625 -1.773193359375 -7.115264892578125 -16.803192138671875
          -27.122039794921875 -31.143310546875 -41.9559326171875 -36.664154052734375 -18.7276611328125 -6.306732177734375
          -2.41375732421875 5.204437255859375 5.9195556640625 6.283416748046875 17.3553466796875 11.700408935546875
          17.23272705078125 9.81268310546875 6.610565185546875 5.63055419921875 -4.31683349609375 -16.416229248046875
          -19.6046142578125 -22.82916259765625 -45.8258056640625 -36.2862548828125 -20.663177490234375 -15.689422607421875
          2.29730224609375 9.16888427734375 7.96783447265625 4.68603515625 2.10260009765625 -2.923095703125
          1.501007080078125 -0.25872802734375 16.417510986328125 10.18206787109375 8.07501220703125 4.50390625
          -6.337799072265625 -20.751007080078125 -22.062469482421875 -52.24998474121094 -22.3759765625 -20.861602783203125
          -12.658721923828125 -6.598114013671875 -2.094085693359375 9.903076171875 7.02020263671875 -4.409088134765625
          -9.619384765625 -11.9710693359375 -6.003143310546875 7.334442138671875 24.940704345703125 11.446380615234375
          8.30023193359375 -3.889312744140625 -14.17156982421875 -21.20269775390625 -24.802978515625 -18.030914306640625
          -8.419677734375 -4.57470703125 -0.02691650390625 4.8211669921875 9.047332763671875 5.26959228515625
          -4.962066650390625 -17.179107666015625 -17.887420654296875 -4.000274658203125 2.55169677734375 18.417510986328125
          13.001312255859375 8.97210693359375 3.79327392578125 1.198699951171875 -7.590667724609375 -12.15802001953125
          -3.500030517578125 3.828399658203125 3.968536376953125 3.1044921875 9.2459716796875 14.057861328125
          20.02886962890625 4.817840576171875 -0.794219970703125 -23.149688720703125 -11.530487060546875 -1.607940673828125
          7.09271240234375 8.23480224609375 10.19476318359375 10.58978271484375 7.745391845703125 -1.884796142578125
          -2.2559814453125 7.10675048828125 6.278106689453125 6.80908203125 5.71600341796875 1.8070068359375
          -1.6915283203125 -3.35107421875 -6.214599609375 -10.250762939453125 -13.606903076171875 -13.65142822265625
          -8.461029052734375 0.12579345703125 6.88140869140625 8.982940673828125 8.58428955078125 8.658050537109375
          9.121368408203125 8.645599365234375 6.99652099609375 6.417510986328125 5.635101318359375 4.730224609375
          3.79766845703125 2.9383544921875 2.247344970703125 1.804534912109375 1.65924072265625 1.827789306640625
          2.290069580078125 2.994110107421875 3.862884521484375 4.801666259765625 5.708038330078125 6.4830322265625
          7.0428466796875 7.32855224609375 7.311767578125 -8.219575881958008 4.519855499267578
        </DataArray>
        <DataArray type="Float32" Name="MU" format="ascii" RangeMin="-4325.1904296875" RangeMax="3893.1728515625">
          3421.892578125 3745.638427734375 3893.1728515625 3826.10009765625 3546.9384765625 3114.749755859375
          2641.50927734375 2248.931396484375 2020.9814453125 1977.14111328125 2070.614990234375 2216.072998046875
          2326.71826171875 2350.61376953125 2297.9013671875 2247.75 2317.879150390625 2583.406982421875
          2995.511962890625 358.16015625 1932.3133544921875 2925.265625 3099.449951171875 2757.7958984375
          2181.4833984375 1627.2763671875 1336.245849609375 1237.8631591796875 1237.5516357421875 1363.313232421875
          1822.37255859375 1992.60302734375 1667.2923583984375 1145.5164794921875 961.967529296875 654.2849731445312
          10.49200439453125 -599.5093994140625 -968.275390625 -1141.7537841796875 1224.338623046875 2259.9384765625
          2780.567626953125 1811.9534912109375 1181.5330810546875 120.13131713867188 129.400146484375 434.55633544921875
          447.8638000488281 1221.2869873046875 1372.501220703125 203.89584350585938 1354.980712890625 1945.901123046875
          518.131591796875 -869.790771484375 -2250.954345703125 -4325.1904296875 -2700.2734375 1077.994140625
          793.6324462890625 1779.894775390625 1401.9796142578125 1093.926025390625 211.39788818359375 675.4371337890625
          3077.694580078125 2369.02587890625 -647.1363525390625 577.0521240234375 500.50543212890625 24.139923095703125
          1298.716796875 1247.885009765625 -1621.811279296875 -1998.5654296875 -936.8433227539062 -167.96446228027344
          2431.733154296875 1471.27294921875 1155.3177490234375 263.206787109375 645.8836669921875 664.751220703125
          732.2689819335938 2267.079833984375 2379.687744140625 1221.24658203125 -2846.962890625 27.94793701171875
          -520.2957153320312 1122.1275634765625 1280.2109375 -650.5186767578125 171.1359100341797 832.1879272460938
          2167.4189453125 251.69119262695312 850.220703125 721.4146118164062 1270.896484375 1218.86083984375
          1607.9478759765625 1133.583740234375 -295.18634033203125 -829.249267578125 1839.9720458984375 -475.12969970703125
          -50.411376953125 -721.8768310546875 283.8802185058594 1524.810546875 1091.395263671875 1626.9193115234375
          648.2921142578125 -79.3441162109375 936.138916015625 906.738037109375 516.770751953125 163.121826171875
          -231.14524841308594 -532.7031860351562 -692.2446899414062 2238.719970703125 1753.716796875 1282.548095703125
          398.8597412109375 566.9112548828125 -347.1800842285156 -828.0396728515625 -276.94451904296875 1293.3922119140625
          1267.84033203125 516.449951171875 569.9287719726562 526.8880615234375 679.4240112304688 871.2794189453125