# vtk DataFile Version 5.1
vtk output
ASCII
DATASET UNSTRUCTURED_GRID
POINTS 1089 double
0.03 0 0 0.0303125 0 0 0.030625 0 0 
0.0309375 0 0 0.03125 0 0 0.0315625 0 0 
0.031875 0 0 0.0321875 0 0 0.0325 0 0 
0.0328125 0 0 0.033125 0 0 0.0334375 0 0 
0.03375 0 0 0.0340625 0 0 0.034375 0 0 
0.0346875 0 0 0.035 0 0 0.0353125 0 0 
0.035625 0 0 0.0359375 0 0 0.03625 0 0 
0.0365625 0 0 0.036875 0 0 0.0371875 0 0 
0.0375 0 0 0.0378125 0 0 0.038125 0 0 
0.0384375 0 0 0.03875 0 0 0.0390625 0 0 
0.039375 0 0 0.0396875 0 0 0.04 0 0 
0.029970174201 0.0013374073245 0 0.030282363516 0.0013513386508 0 0.03059455283 0.0013652699771 0 
0.030906742145 0.0013792013033 0 0.03121893146 0.0013931326296 0 0.031531120774 0.0014070639559 0 
0.031843310089 0.0014209952822 0 0.032155499403 0.0014349266085 0 0.032467688718 0.0014488579348 0 
0.032779878033 0.0014627892611 0 0.033092067347 0.0014767205874 0 0.033404256662 0.0014906519137 0 
0.033716445976 0.00150458324 0 0.034028635291 0.0015185145663 0 0.034340824606 0.0015324458926 0 
0.03465301392 0.0015463772189 0 0.034965203235 0.0015603085452 0 0.035277392549 0.0015742398715 0 
0.035589581864 0.0015881711978 0 0.035901771178 0.0016021025241 0 0.036213960493 0.0016160338504 0 
0.036526149808 0.0016299651767 0 0.036838339122 0.001643896503 0 0.037150528437 0.0016578278293 0 
0.037462717751 0.0016717591556 0 0.037774907066 0.0016856904819 0 0.038087096381 0.0016996218082 0 
0.038399285695 0.0017135531345 0 0.03871147501 0.0017274844608 0 0.039023664324 0.0017414157871 0 
0.039335853639 0.0017553471134 0 0.039648042954 0.0017692784396 0 0.039960232268 0.0017832097659 0 
0.029878647258 0.0026956331369 0 0.030189883167 0.0027237126488 0 0.030501119076 0.0027517921606 0 
0.030812354985 0.0027798716725 0 0.031123590894 0.0028079511843 0 0.031434826803 0.0028360306961 0 
0.031746062712 0.002864110208 0 0.032057298621 0.0028921897198 0 0.03236853453 0.0029202692317 0 
0.032679770439 0.0029483487435 0 0.032991006348 0.0029764282554 0 0.033302242257 0.0030045077672 0 
0.033613478166 0.003032587279 0 0.033924714075 0.0030606667909 0 0.034235949984 0.0030887463027 0 
0.034547185893 0.0031168258146 0 0.034858421801 0.0031449053264 0 0.03516965771 0.0031729848383 0 
0.035480893619 0.0032010643501 0 0.035792129528 0.0032291438619 0 0.036103365437 0.0032572233738 0 
0.036414601346 0.0032853028856 0 0.036725837255 0.0033133823975 0 0.037037073164 0.0033414619093 0 
0.037348309073 0.0033695414212 0 0.037659544982 0.003397620933 0 0.037970780891 0.0034257004448 0 
0.0382820168 0.0034537799567 0 0.038593252709 0.0034818594685 0 0.038904488618 0.0035099389804 0 
0.039215724527 0.0035380184922 0 0.039526960436 0.0035660980041 0 0.039838196345 0.0035941775159 0 
0.02972251814 0.0040708617533 0 0.030032127704 0.0041132665632 0 0.030341737268 0.0041556713732 0 
0.030651346832 0.0041980761831 0 0.030960956396 0.004240480993 0 0.03127056596 0.004282885803 0 
0.031580175524 0.0043252906129 0 0.031889785088 0.0043676954228 0 0.032199394652 0.0044101002328 0 
0.032509004216 0.0044525050427 0 0.03281861378 0.0044949098526 0 0.033128223344 0.0045373146625 0 
0.033437832908 0.0045797194725 0 0.033747442472 0.0046221242824 0 0.034057052035 0.0046645290923 0 
0.034366661599 0.0047069339023 0 0.034676271163 0.0047493387122 0 0.034985880727 0.0047917435221 0 
0.035295490291 0.0048341483321 0 0.035605099855 0.004876553142 0 0.035914709419 0.0049189579519 0 
0.036224318983 0.0049613627618 0 0.036533928547 0.0050037675718 0 0.036843538111 0.0050461723817 0 
0.037153147675 0.0050885771916 0 0.037462757239 0.0051309820016 0 0.037772366803 0.0051733868115 0 
0.038081976367 0.0052157916214 0 0.038391585931 0.0052581964314 0 0.038701195495 0.0053006012413 0 
0.039010805059 0.0053430060512 0 0.039320414623 0.0053854108611 0 0.039630024187 0.0054278156711 0 
0.029499161052 0.0054588915724 0 0.02980644398 0.0055157550262 0 0.030113726908 0.0055726184801 0 
0.030421009835 0.005629481934 0 0.030728292763 0.0056863453879 0 0.031035575691 0.0057432088418 0 
0.031342858618 0.0058000722956 0 0.031650141546 0.0058569357495 0 0.031957424474 0.0059137992034 0 
0.032264707401 0.0059706626573 0 0.032571990329 0.0060275261112 0 0.032879273256 0.006084389565 0 
0.033186556184 0.0061412530189 0 0.033493839112 0.0061981164728 0 0.033801122039 0.0062549799267 0 
0.034108404967 0.0063118433805 0 0.034415687895 0.0063687068344 0 0.034722970822 0.0064255702883 0 
0.03503025375 0.0064824337422 0 0.035337536677 0.0065392971961 0 0.035644819605 0.0065961606499 0 
0.035952102533 0.0066530241038 0 0.03625938546 0.0067098875577 0 0.036566668388 0.0067667510116 0 
0.036873951316 0.0068236144655 0 0.037181234243 0.0068804779193 0 0.037488517171 0.0069373413732 0 
0.037795800099 0.0069942048271 0 0.038103083026 0.007051068281 0 0.038410365954 0.0071079317348 0 
0.038717648881 0.0071647951887 0 0.039024931809 0.0072216586426 0 0.039332214737 0.0072785220965 0 
0.029206281031 0.0068551548722 0 0.029510513125 0.0069265627354 0 0.029814745219 0.0069979705987 0 
0.030118977314 0.0070693784619 0 0.030423209408 0.0071407863252 0 0.030727441502 0.0072121941885 0 
0.031031673596 0.0072836020517 0 0.03133590569 0.007355009915 0 0.031640137784 0.0074264177782 0 
0.031944369878 0.0074978256415 0 0.032248601972 0.0075692335047 0 0.032552834066 0.007640641368 0 
0.03285706616 0.0077120492312 0 0.033161298254 0.0077834570945 0 0.033465530348 0.0078548649577 0 
0.033769762442 0.007926272821 0 0.034073994536 0.0079976806842 0 0.034378226631 0.0080690885475 0 
0.034682458725 0.0081404964107 0 0.034986690819 0.008211904274 0 0.035290922913 0.0082833121372 0 
0.035595155007 0.0083547200005 0 0.035899387101 0.0084261278637 0 0.036203619195 0.008497535727 0 
0.036507851289 0.0085689435902 0 0.036812083383 0.0086403514535 0 0.037116315477 0.0087117593167 0 
0.037420547571 0.00878316718 0 0.037724779665 0.0088545750432 0 0.038029011759 0.0089259829065 0 
0.038333243854 0.0089973907698 0 0.038637475948 0.009068798633 0 0.038941708042 0.0091402064963 0 
0.028841968746 0.0082547464454 0 0.02914240592 0.0083407333875 0 0.029442843094 0.0084267203296 0 
0.029743280269 0.0085127072718 0 0.030043717443 0.0085986942139 0 0.030344154618 0.0086846811561 0 
0.030644591792 0.0087706680982 0 0.030945028967 0.0088566550403 0 0.031245466141 0.0089426419825 0 
0.031545903316 0.0090286289246 0 0.03184634049 0.0091146158668 0 0.032146777664 0.0092006028089 0 
0.032447214839 0.009286589751 0 0.032747652013 0.0093725766932 0 0.033048089188 0.0094585636353 0 
0.033348526362 0.0095445505774 0 0.033648963537 0.0096305375196 0 0.033949400711 0.0097165244617 0 
0.034249837885 0.0098025114039 0 0.03455027506 0.009888498346 0 0.034850712234 0.0099744852881 0 
0.035151149409 0.01006047223 0 0.035451586583 0.010146459172 0 0.035752023758 0.010232446115 0 
0.036052460932 0.010318433057 0 0.036352898106 0.010404419999 0 0.036653335281 0.010490406941 0 
0.036953772455 0.010576393883 0 0.03725420963 0.010662380825 0 0.037554646804 0.010748367767 0 
0.037855083979 0.01083435471 0 0.038155521153 0.010920341652 0 0.038455958327 0.011006328594 0 
0.028404752965 0.0096524612915 0 0.028700635809 0.0097530077632 0 0.028996518652 0.009853554235 0 
0.029292401495 0.0099541007068 0 0.029588284339 0.010054647179 0 0.029884167182 0.01015519365 0 
0.030180050026 0.010255740122 0 0.030475932869 0.010356286594 0 0.030771815712 0.010456833066 0 
0.031067698556 0.010557379538 0 0.031363581399 0.010657926009 0 0.031659464243 0.010758472481 0 
0.031955347086 0.010859018953 0 0.032251229929 0.010959565425 0 0.032547112773 0.011060111896 0 
0.032842995616 0.011160658368 0 0.033138878459 0.01126120484 0 0.033434761303 0.011361751312 0 
0.033730644146 0.011462297784 0 0.03402652699 0.011562844255 0 0.034322409833 0.011663390727 0 
0.034618292676 0.011763937199 0 0.03491417552 0.011864483671 0 0.035210058363 0.011965030143 0 
0.035505941207 0.012065576614 0 0.03580182405 0.012166123086 0 0.036097706893 0.012266669558 0 
0.036393589737 0.01236721603 0 0.03668947258 0.012467762501 0 0.036985355424 0.012568308973 0 
0.037281238267 0.012668855445 0 0.03757712111 0.012769401917 0 0.037873003954 0.012869948389 0 
0.027893649032 0.011042841287 0 0.028184207876 0.011157870884 0 0.02847476672 0.01127290048 0 
0.028765325564 0.011387930077 0 0.029055884408 0.011502959674 0 0.029346443252 0.011617989271 0 
0.029637002096 0.011733018867 0 0.02992756094 0.011848048464 0 0.030218119785 0.011963078061 0 
0.030508678629 0.012078107657 0 0.030799237473 0.012193137254 0 0.031089796317 0.012308166851 0 
0.031380355161 0.012423196448 0 0.031670914005 0.012538226044 0 0.031961472849 0.012653255641 0 
0.032252031693 0.012768285238 0 0.032542590537 0.012883314835 0 0.032833149381 0.012998344431 0 
0.033123708225 0.013113374028 0 0.033414267069 0.013228403625 0 0.033704825914 0.013343433222 0 
0.033995384758 0.013458462818 0 0.034285943602 0.013573492415 0 0.034576502446 0.013688522012 0 
0.03486706129 0.013803551609 0 0.035157620134 0.013918581205 0 0.035448178978 0.014033610802 0 
0.035738737822 0.014148640399 0 0.036029296666 0.014263669996 0 0.03631985551 0.014378699592 0 
0.036610414354 0.014493729189 0 0.036900973198 0.014608758786 0 0.037191532042 0.014723788382 0 
0.027308201633 0.012420230416 0 0.027592662066 0.012549607816 0 0.0278771225 0.012678985216 0 
0.028161582934 0.012808362617 0 0.028446043367 0.012937740017 0 0.028730503801 0.013067117417 0 
0.029014964235 0.013196494817 0 0.029299424668 0.013325872217 0 0.029583885102 0.013455249617 0 
0.029868345536 0.013584627018 0 0.030152805969 0.013714004418 0 0.030437266403 0.013843381818 0 
0.030721726837 0.013972759218 0 0.03100618727 0.014102136618 0 0.031290647704 0.014231514018 0 
0.031575108138 0.014360891419 0 0.031859568571 0.014490268819 0 0.032144029005 0.014619646219 0 
0.032428489439 0.014749023619 0 0.032712949873 0.014878401019 0 0.032997410306 0.015007778419 0 
0.03328187074 0.01513715582 0 0.033566331174 0.01526653322 0 0.033850791607 0.01539591062 0 
[...]
POINT_DATA 1089
FIELD FieldData 11
P1 1 1089 double
0 0 1.255615695e-10 2.5849394142e-26 -7.5336941698e-10 2.0679515314e-25 4.3946549324e-09 1.6543612251e-24 -2.5614560177e-08 
1.3234889801e-23 1.4929270613e-07 2.623542409e-07 1.7927528697e-07 -6.6174449004e-24 -1.7552746438e-07 -2.623542409e-07 -1.7552746427e-07 -6.6174449004e-24 
1.7927528642e-07 2.623542409e-07 1.4929270933e-07 -1.6130021945e-23 -2.5614578845e-08 -2.5849394142e-26 4.394763738e-09 4.8467614017e-25 -7.540035825e-10 
8.8857292364e-27 1.29257757e-10 1.0097419587e-27 -2.15429595e-11 -8.0779356695e-28 0 3.1737544988e-07 3.0386730176e-07 3.1704156824e-07 
3.3377247621e-07 3.3093425255e-07 3.2002037878e-07 3.1252433638e-07 2.5119367691e-07 7.877595192e-08 -7.7483922123e-08 -9.0341028756e-08 -4.1177404962e-08 
-1.1375087728e-08 -9.9118876823e-09 -4.5765615457e-08 -3.5035725425e-08 1.0617832804e-07 2.5262208158e-07 2.7904107183e-07 2.7837746186e-07 3.4357341472e-07 
3.0171566507e-07 -2.0109052437e-08 -2.5267479533e-07 -2.6755621116e-08 3.0711184988e-07 3.9839099735e-07 3.1644871947e-07 1.3065191444e-07 -1.4478807225e-10 
8.2913241598e-08 2.3652149155e-07 3.1737544988e-07 2.6901856889e-07 2.7189026767e-07 2.6594030092e-07 2.6553272314e-07 2.8503158889e-07 2.6845628314e-07 
1.5982619091e-07 -2.9577358875e-09 -1.8199454534e-07 -2.6957357957e-07 -1.5798418067e-07 7.2451515062e-10 5.4503371714e-08 2.10716936e-09 -1.5770931157e-07 
-2.7056825248e-07 -1.8209183477e-07 -3.2614006035e-09 1.5494170786e-07 2.6927976154e-07 3.1651503135e-07 2.7234768437e-07 1.1247788765e-07 3.2726070251e-09 
1.1109880833e-07 2.7120050881e-07 3.1882172573e-07 2.6921558261e-07 1.3763520299e-07 3.078051319e-11 -6.7647491163e-08 1.614257116e-10 2.6901856889e-07 
1.1935709709e-07 3.1341091451e-07 1.2302679966e-07 -1.0860631846e-07 -3.8299510846e-08 8.8310971413e-08 2.5588877231e-08 -7.7735040661e-08 -7.293002953e-08 
-2.8932294754e-08 -1.467804171e-08 1.4341629805e-08 1.0263562e-07 1.5184097999e-07 6.3594760913e-08 -5.8190454072e-08 -1.0960208181e-07 -9.4501627854e-08 
-1.6750597745e-08 1.0811677181e-07 2.6456624412e-07 3.386667855e-07 2.164873623e-07 9.5120380827e-08 1.7165824738e-07 2.7532646964e-07 2.3535055527e-07 
1.3023504119e-07 3.848446433e-08 1.699519671e-09 6.1480902207e-08 1.2998222399e-07 1.1935709709e-07 -1.5864112001e-09 2.7718859353e-07 3.1432933898e-08 
-2.7832384374e-07 -1.9155219302e-07 2.7909962566e-10 5.7012477393e-09 1.7256556344e-09 1.6536372762e-07 2.8364299807e-07 1.4359100134e-07 2.1475468288e-11 
1.0774815847e-07 2.8131150497e-07 3.3525196961e-07 2.8451783242e-07 1.4405737341e-07 2.7331323883e-09 -5.0592350851e-08 -2.7757964499e-11 1.7031822939e-07 
2.7567100963e-07 1.3125598115e-07 -2.7703122406e-09 1.3374867327e-07 2.7947702543e-07 1.7307883201e-07 -2.2400490385e-09 -6.3273759774e-08 -1.0212135252e-10 
1.9719504507e-07 2.7967964621e-07 -1.5864112001e-09 -2.4660310448e-08 -2.3908627544e-08 6.0132492556e-08 1.5083570515e-07 1.7157366553e-07 1.397773913e-07 
7.2877900074e-08 4.8726439359e-08 1.4517425668e-07 2.1732679798e-07 1.202895092e-07 2.2381535268e-08 9.1922021089e-08 2.1124494546e-07 2.6268428716e-07 
2.564664291e-07 2.0281775417e-07 1.5427015625e-07 1.6335552924e-07 1.3962270942e-07 -7.3794669295e-09 -1.644652233e-07 -2.1844878321e-07 -1.5682211746e-07 
3.2922803131e-08 1.6955764994e-07 7.1854094331e-08 -6.9524888927e-08 -6.3916325086e-08 -7.0094342238e-09 5.5065635796e-09 -6.8748792903e-09 -2.4660310448e-08 
4.0092899104e-10 -2.9026651212e-07 1.018278537e-07 5.7925614682e-07 5.445904876e-07 2.8916211366e-07 1.0430226263e-07 -1.7065884196e-09 -2.0581962425e-08 
-2.9820598987e-09 4.3491864442e-10 -1.2843704964e-09 9.0672897772e-10 -4.1423810993e-09 -2.7582298893e-08 -4.6847119083e-09 1.2927869235e-07 2.8991406183e-07 
3.9282754448e-07 2.8897193873e-07 -1.7069995699e-07 -5.8018719043e-07 -5.3348880936e-07 -2.8979015707e-07 -1.0827657688e-07 -2.9147449666e-09 1.2328662463e-08 
2.5792281601e-09 3.2962534874e-08 3.4032738661e-10 -1.9842564952e-07 -2.896379357e-07 4.0092899104e-10 7.609306634e-09 -2.1185741975e-07 4.874280477e-08 
3.8437138713e-07 3.8998973426e-07 2.1126474089e-07 -6.1366982592e-09 -1.5458759063e-07 -1.2646094365e-07 -5.7451317565e-08 -8.3253272619e-08 -1.4714158531e-07 
-1.9239103215e-07 -2.3374486707e-07 -2.8594634403e-07 -2.2609617381e-07 6.8704932803e-08 3.5454129788e-07 3.8749724348e-07 1.8973167071e-07 -2.1659651935e-07 
-5.464007232e-07 -5.1459433736e-07 -3.4452358759e-07 -2.5953469967e-07 -1.5929622005e-07 5.6523304784e-08 2.2086768675e-07 1.6668073775e-07 2.7515497195e-08 
-6.3074995506e-08 -7.8555479359e-08 7.609306634e-09 -1.1915517701e-10 2.5217763558e-09 -5.2944461474e-09 -3.9844440751e-09 2.6035161184e-08 -3.1097065541e-09 
-1.7929312347e-07 -2.9605494611e-07 -1.4693503099e-07 9.2468546635e-10 -1.1961773313e-07 -2.9615490882e-07 -3.1627946361e-07 -2.9384992634e-07 -3.4272482584e-07 
-2.9449576982e-07 1.9245634033e-08 2.9292276362e-07 2.2095899684e-07 -2.2469731138e-09 -1.8229645306e-07 -2.9130418538e-07 -3.0138491242e-07 -2.9330441136e-07 
-3.4782845934e-07 -2.9651548011e-07 2.9076102613e-08 2.9355926363e-07 1.6154697776e-07 -1.0482662287e-09 1.7168602043e-07 2.9893425251e-07 -1.1915517701e-10 
-4.6108183076e-09 7.1878860208e-08 3.2178370823e-08 -5.532021106e-08 -1.2222481004e-07 -1.9632530358e-07 -3.0541156917e-07 -3.2127373229e-07 -1.1570191841e-07 
3.8464489103e-08 -1.316138931e-07 -3.2335999648e-07 -2.3419675248e-07 -9.4805016195e-08 -1.3586564274e-07 -1.7614644138e-07 -3.4415221399e-08 1.0269895985e-07 
4.8567045006e-08 -6.8921666511e-08 -1.2187787528e-07 -1.2897277695e-07 -1.0887756719e-07 -1.4154427617e-07 -3.0692493407e-07 -3.9632229935e-07 -2.0103913049e-07 
-6.9017733268e-09 -9.9736573696e-08 -1.4442180679e-07 1.9416425222e-07 4.0958133711e-07 -4.6108183076e-09 9.3493858477e-11 -1.168081111e-09 2.335662464e-08 
8.5939223534e-12 -1.4487119045e-07 -3.0072840408e-07 -3.5700872252e-07 -2.9995835494e-07 -1.1582351046e-07 -8.1015566769e-10 -1.5112425717e-07 -2.9993611487e-07 
-1.8041602869e-07 -5.7474386714e-10 3.1576994357e-08 1.7090971511e-09 -4.5085243197e-09 -7.8168594962e-11 1.9978657853e-09 1.1945527418e-09 -3.0131338049e-09 
1.6119695429e-09 2.7307026183e-08 1.1369353812e-09 -1.498334036e-07 -2.9779223027e-07 -3.1492778417e-07 -3.0190935418e-07 -3.5940622918e-07 -3.0146709757e-07 
5.7859352264e-08 2.9842794213e-07 9.3493858477e-11 1.079577941e-08 -1.4433542307e-07 -1.6031800587e-07 -1.4739680665e-07 -2.1581666305e-07 -3.012498248e-07 
-3.3936854159e-07 -3.1393335992e-07 -2.0870482627e-07 -1.3466626971e-07 -2.0280101932e-07 -3.1335269802e-07 -3.6656492873e-07 -3.1688277645e-07 -1.1875130618e-07 
8.5932465074e-08 1.5527152028e-07 1.5454584022e-07 1.4903540567e-07 1.5595411075e-07 1.9251584958e-07 1.9797327182e-07 1.1157902713e-07 3.2689475987e-08 
6.0660978839e-08 7.6268234767e-08 -3.9714057152e-08 -2.0908706862e-07 -3.5365197135e-07 -3.5546720127e-07 -9.6591194294e-08 1.2486636184e-07 1.079577941e-08 
-1.6928137877e-10 -3.0521946778e-07 -3.573868193e-07 -3.0485101064e-07 -2.9579171648e-07 -3.0428549914e-07 -3.0440892098e-07 -3.0385226925e-07 -3.1030583126e-07 
-3.0529805669e-07 -2.7035739528e-07 -3.0385679018e-07 -5.041691846e-07 -6.0946235986e-07 -3.5790409734e-07 -1.0904597741e-09 2.0938249009e-07 3.0470389158e-07 
3.16062884e-07 3.0501753434e-07 3.3312590956e-07 3.0437291481e-07 1.2274345522e-07 -2.8517307081e-10 1.4676432608e-07 3.0471515861e-07 2.1439053042e-07 
1.2467570165e-09 -2.0925984609e-07 -3.0350703987e-07 -1.678725853e-07 -6.5911994653e-10 -1.6928137877e-10 -3.9117160034e-08 -4.1311501606e-07 -3.7180877277e-07 
-2.2824561938e-07 -2.9547274508e-07 -3.7819591714e-07 -2.8112090283e-07 -1.9485713017e-07 -3.1001402716e-07 -4.172830245e-07 -3.0735555288e-07 -1.9502349917e-07 
-2.9507875023e-07 -4.2155564941e-07 -3.8848854007e-07 -2.4106808362e-07 -2.4484941498e-08 1.8753975378e-07 3.2128486968e-07 3.6266879527e-07 2.9760991963e-07 
1.7811566693e-07 5.6193461334e-08 -2.232488541e-08 -1.1607561552e-08 3.0379841884e-08 4.5671733876e-08 1.0381083348e-08 -9.9379140774e-08 -1.7371961847e-07 
-1.0275102972e-07 -1.5031001311e-08 -3.9117160034e-08 1.8722924178e-10 -3.060307378e-07 -1.7878554149e-07 9.0972081971e-10 -1.4795804823e-07 -3.0619740275e-07 
-1.5461689686e-07 7.5042488e-10 -1.4612848208e-07 -3.0601082458e-07 -1.8965380949e-07 7.5121889779e-10 6.3012916276e-08 1.6522801571e-09 -1.7880969195e-07 
-3.0667175881e-07 -2.1023267921e-07 -7.1486998007e-10 2.1065925206e-07 3.0627220198e-07 1.6850649488e-07 -6.6993733003e-10 7.1083727209e-10 1.0674178177e-10 
-1.7502430071e-07 -3.0778780023e-07 -1.8128926682e-07 -4.8964918706e-11 3.1412841023e-08 6.4940551834e-10 -4.786016921e-09 7.1586666179e-11 1.8722924178e-10 
1.8484285545e-07 7.8393135022e-08 1.4670800339e-07 2.2344458645e-07 1.4226001007e-07 6.130952506e-08 1.387483822e-07 2.2246422671e-07 1.6034470379e-07 
8.5209680247e-08 1.2987902289e-07 2.2253529025e-07 2.9136104086e-07 2.9055970096e-07 1.7433469682e-07 3.422652339e-08 -3.822432435e-08 -2.8433462798e-08 
7.818349165e-08 1.5126199241e-07 6.043749289e-08 -3.5285030737e-08 2.3099397699e-08 5.6231289778e-08 -1.1524884291e-07 -2.395358094e-07 -6.4824418688e-08 
1.7400788205e-07 2.4208364566e-07 1.8014976873e-07 2.8953147851e-08 -2.9988421678e-08 1.8484285545e-07 3.0776938324e-07 3.0821399519e-07 3.079826104e-07 
3.0767934627e-07 3.0790832021e-07 3.0817641212e-07 3.0799050193e-07 3.077529251e-07 3.0786601707e-07 3.0825255579e-07 3.0883531917e-07 3.0775303048e-07 
3.03144413e-07 3.0778258859e-07 3.3444067912e-07 3.0822312082e-07 1.5423434987e-07 1.5872775796e-10 -2.6319384051e-08 -1.5232973323e-10 3.707546533e-09 
8.7117695245e-11 3.8132567007e-09 3.4719318519e-10 -2.4849843215e-08 2.8913954259e-10 1.478311335e-07 3.0781154975e-07 3.7026579938e-07 3.0750212758e-07 
9.182877957e-08 -2.5016257244e-10 3.0776938324e-07 1.8474094437e-07 2.8717325255e-08 8.917098253e-08 1.8385138531e-07 1.3050800271e-07 6.1542681913e-08 
1.0935727012e-07 1.5401310067e-07 7.5571506895e-08 5.7495903941e-09 7.6264452756e-08 1.5389789663e-07 1.0543172467e-07 3.5369665376e-08 4.8215447261e-08 
6.9061647785e-08 2.3000844409e-08 -3.8049991672e-08 -6.2173889264e-08 -4.9335017828e-08 5.0245317408e-10 -1.2043987096e-09 -1.4299849593e-07 -2.3977723008e-07 
-1.0643799275e-07 8.0305759108e-08 1.4374056852e-07 1.7791438594e-07 2.7687516182e-07 3.3949797065e-07 2.6465788689e-07 1.7289288624e-07 1.8474094437e-07 
1.8579176462e-10 -3.0673142554e-07 -1.7957156437e-07 3.5125039739e-10 -1.4827710611e-07 -3.0619411402e-07 -1.5413725345e-07 -2.1509263735e-10 -1.525361998e-07 
-3.0713162585e-07 -1.6003242169e-07 -2.1692596301e-10 -1.1666347729e-07 -3.0578468781e-07 -3.6399316964e-07 -3.0618040206e-07 -1.4723786437e-07 -8.5051314069e-10 
1.929669505e-08 -3.9471988763e-10 2.6476761959e-08 -1.8922285345e-10 -1.8049303777e-07 -3.0790597948e-07 -1.758993447e-07 5.6109119675e-10 6.5095528387e-09 
6.1371395454e-12 1.3911094101e-07 3.0673450428e-07 3.8578736674e-07 3.0677072903e-07 1.8579176462e-10 -3.8815945049e-08 -2.2856637781e-07 -1.538004928e-07 
-7.3497792854e-08 -2.4663778079e-07 -3.7888505065e-07 -1.7590419643e-07 4.5185050074e-08 -3.2737042888e-08 -1.4470203708e-07 -2.5741494251e-08 4.5569225634e-08 
-2.0934523738e-07 -5.0244943658e-07 -5.4570792526e-07 -3.8175263006e-07 -5.3215477636e-08 2.1596298996e-07 2.018422307e-07 8.2692728686e-08 3.6784968023e-08 
3.9661147054e-08 6.6863464122e-08 5.5150680216e-08 -5.8718443672e-08 -1.5526182183e-07 -1.1499736853e-07 -1.1652328021e-09 1.2299443635e-07 2.2817410018e-07 
2.8506621996e-07 2.2046985259e-07 -3.8815945049e-08 -1.6091195305e-10 -7.5190165802e-10 2.8585364937e-08 -1.2114766315e-09 -1.7920479083e-07 -3.043046471e-07 
-1.7542111489e-07 2.1572157612e-09 2.3141754805e-08 1.6155371584e-09 5.1661597738e-08 2.1679920174e-09 -3.1797722453e-07 -6.0745787919e-07 -5.6495779925e-07 
-3.0433923773e-07 6.0535552367e-08 3.0549364699e-07 2.0636212206e-07 2.1506236008e-09 -6.8131202375e-08 1.1860993811e-09 2.1577198412e-07 3.0545946774e-07 
8.156614413e-11 -3.0337471701e-07 -2.0792237806e-07 9.2593620749e-10 3.7657579036e-08 2.7474205674e-09 -3.3296690553e-09 1.6322426205e-09 -1.6091195305e-10 
9.7185662812e-09 4.2462803482e-08 1.5549988249e-07 1.8311550493e-07 -4.0404627577e-08 -2.9878532702e-07 -3.757514054e-07 -3.6273225101e-07 -3.5115725218e-07 
-3.3697093873e-07 -3.1611784053e-07 -3.6412046135e-07 -5.5650130495e-07 -6.8733484334e-07 -5.5069554853e-07 -2.9487332681e-07 -6.8158084473e-08 1.575827789e-08 
-1.5681614033e-07 -3.4932058448e-07 -3.2519429993e-07 -1.9080760099e-07 -5.2530801969e-08 -2.0201678927e-08 -2.0365800792e-07 -3.6793975136e-07 -2.7808687166e-07 
-1.6779482242e-07 -2.7075905723e-07 -3.9761655376e-07 -3.5900428966e-07 -2.0615000348e-07 9.7185662812e-09 5.2169314847e-11 4.4572281779e-11 1.9148805432e-07 
3.0028785099e-07 5.2349197845e-08 -3.0063385988e-07 -5.0696727695e-07 -6.0133716422e-07 -6.1842963255e-07 -6.0163120204e-07 -5.943283928e-07 -6.0139045493e-07 
-6.2768663855e-07 -6.0300672443e-07 -4.5714049332e-07 -3.0049954146e-07 -2.4349546508e-07 -2.9895577875e-07 -4.7970799702e-07 -6.004561695e-07 -4.759043458e-07 
-3.0090261277e-07 -2.7030105728e-07 -3.0151263564e-07 -3.1195030418e-07 -3.0181259661e-07 -2.7129804662e-07 -3.0032528211e-07 -4.6881293099e-07 -6.0147704177e-07 
-5.2303366297e-07 -3.0026364311e-07 5.2169314847e-11 -7.3344835958e-10 1.6380055232e-08 1.4224641216e-07 2.0354496646e-07 2.6955062126e-08 -2.0519612902e-07 
-3.1058143516e-07 -3.2401996441e-07 -2.8033082489e-07 -2.4340106056e-07 -2.7711771539e-07 -3.190193803e-07 -3.0664464617e-07 -2.6934779672e-07 -2.3648311562e-07 
-2.1759439046e-07 -2.2222540881e-07 -2.6578635968e-07 -3.6368743204e-07 -4.1143756221e-07 -3.0454568645e-07 -1.4171485691e-07 -2.1648125699e-08 2.5784564934e-08 
-2.9286727249e-08 -1.1373034317e-07 -1.5441462374e-07 -1.9191955018e-07 -2.6682510367e-07 -3.2644788336e-07 -3.1810448838e-07 -2.1759848721e-07 -7.3344835958e-10 
6.6648787543e-11 1.2879161091e-09 1.858481419e-09 2.621137308e-09 4.4186763672e-09 -3.5347974164e-09 -3.2025180056e-08 -9.772113834e-10 1.6968436877e-07 
2.8985190651e-07 1.6941774795e-07 -7.3757159626e-10 -2.9733516815e-08 -8.5185936743e-10 2.6256290819e-09 -4.1239216573e-09 -5.9233817759e-09 -4.0689517366e-09 
1.4316799804e-10 -5.2826168827e-09 -3.234190069e-08 4.4325096983e-10 1.7455077249e-07 2.9683568801e-07 1.7415302167e-07 3.8025670811e-10 -3.0605123672e-08 
-1.8655808752e-09 3.5364236877e-09 -1.4739897207e-09 -3.9717008383e-09 -3.5827934179e-09 6.6648787543e-11 -6.2310886082e-09 -1.3768503623e-07 -2.1365981587e-07 
-1.6448887208e-07 7.9494350541e-08 2.4292943417e-07 5.0455960973e-08 -9.8735324917e-08 1.9454632064e-07 4.6013524376e-07 2.2786579052e-07 -1.1658604982e-07 
-1.87544288e-07 -7.7037321354e-08 1.2290645277e-07 2.8675062052e-07 2.8895876806e-07 2.53240554e-07 3.0330563694e-07 2.9440131666e-07 8.1774892937e-08 
-1.3602044088e-07 -1.6043149145e-07 -1.1544922208e-07 -1.2506459607e-07 -1.1386026823e-07 -6.4188933515e-09 7.0247488404e-08 -1.087316312e-08 -5.6997613484e-08 
1.2465737175e-07 2.3970760818e-07 -6.2310886082e-09 -3.8388240324e-10 -2.8648849483e-07 -3.9344683979e-07 -2.8625924416e-07 7.0073965179e-08 2.9095764129e-07 
-8.2033627553e-09 -2.8741062317e-07 -6.6657161751e-09 2.9293080143e-07 7.027837285e-08 -2.8842284131e-07 -3.9697268045e-07 -2.8543155651e-07 1.6140118572e-08 
2.9344099446e-07 3.3216972083e-07 2.9083121202e-07 3.279303824e-07 2.9197724606e-07 3.1481817103e-08 -2.8787178678e-07 -5.003994479e-07 -5.7406504733e-07 
-4.7683246611e-07 -2.8619381649e-07 -7.9641210706e-08 2.3255913318e-09 -1.8079317029e-07 -2.8492973087e-07 3.3983674313e-08 2.9061097916e-07 -3.8388240324e-10 
2.4309216353e-08 -3.2359691704e-07 -4.325094142e-07 -3.5829860167e-07 -1.5683480601e-07 -6.7286894549e-09 -8.6590914239e-08 -1.9507949993e-07 -1.308524661e-07 
-3.3790906913e-08 -4.3775916535e-08 -1.3192053607e-07 -2.6933780661e-07 -3.6176849466e-07 -3.1495336669e-07 -1.9613520844e-07 -7.2556805642e-08 9.4525535226e-09 
3.5635808742e-09 -4.8202893004e-08 -1.0382603753e-07 -1.8558130457e-07 -3.1574414599e-07 -4.1648564583e-07 -4.0997688813e-07 -3.296661566e-07 -2.0900173498e-07 
-1.602487825e-07 -2.9567245839e-07 -3.8568145801e-07 -2.0068447673e-07 1.6813932415e-08 2.4309216353e-08 1.5812960649e-09 -2.8140241822e-07 -3.2697134961e-07 
-2.8415087735e-07 -3.0196638071e-07 -2.7886208451e-07 -1.1328221356e-07 -2.523313247e-09 -1.4388192898e-07 -2.7824060361e-07 -1.4648187996e-07 1.5622715955e-09 
-8.3940119304e-08 -2.8318567682e-07 -4.7637102512e-07 -5.6077795058e-07 -4.3368823959e-07 -2.7761058405e-07 -2.7505367587e-07 -2.809980635e-07 -1.5042429543e-07 
-2.384932812e-09 4.4067463183e-08 -6.2345585395e-09 -1.4845844907e-07 -2.8149084176e-07 -3.0421836993e-07 -2.7955278144e-07 -2.7040582415e-07 -2.8454982172e-07 
-3.2975709784e-07 -2.7729195706e-07 1.5812960649e-09 -1.192719702e-07 -1.9934439449e-07 -1.0210441094e-07 -1.1631905241e-08 -1.1200676308e-07 -1.9260462197e-07 
-4.2801119393e-08 8.5932761716e-08 -5.7873961571e-08 -2.5196381246e-07 -2.7407931415e-07 -2.0228914835e-07 -1.146619968e-07 -7.6711331948e-08 -1.5395062626e-07 
-2.5613096583e-07 -2.9300343678e-07 -2.6244869744e-07 -1.6234740616e-07 -4.9402503013e-08 1.9683071939e-08 8.362981267e-08 1.8115821315e-07 1.9671229894e-07 
1.4736095579e-08 -1.9787283606e-07 -2.742169351e-07 -2.301263418e-07 -8.1431196407e-08 -4.9926100407e-09 -1.7767169382e-07 -3.1169072234e-07 -1.192719702e-07 
-2.6901702713e-07 -4.5173711509e-09 1.9962755072e-07 2.6728905598e-07 1.2233846212e-07 -2.8454519707e-09 1.2411609262e-07 2.6686335754e-07 1.8903660447e-07 
-5.4703772951e-09 -2.1276379845e-07 -2.7315551296e-07 -2.6957374803e-08 2.6456052973e-07 3.4012811436e-07 2.6303895862e-07 9.658664202e-08 -5.6602722084e-09 
1.0986677915e-07 2.6706975087e-07 2.8985059771e-07 2.6682164814e-07 2.8659523062e-07 2.7041957227e-07 1.3954290019e-07 -4.4907193124e-09 -6.0137219921e-08 
-5.0748722797e-09 1.8301805297e-07 2.6740930226e-07 1.136662203e-08 -2.7185911275e-07 -2.6901702713e-07 -3.1738270214e-07 2.5853002578e-07 4.2436445286e-07 
3.2551088407e-07 1.0735962439e-07 1.3384686051e-08 2.8706008132e-07 5.6479414159e-07 4.8299519829e-07 2.630128595e-07 1.2619673331e-07 1.3887654247e-07 
3.6738200977e-07 5.7562638461e-07 5.2752291643e-07 3.8327223126e-07 3.0307495515e-07 2.6390610382e-07 2.4274069297e-07 2.887731035e-07 4.5119771625e-07 
5.6499033794e-07 4.6512677524e-07 3.1078528753e-07 2.6114413415e-07 2.5840465853e-07 2.4476820406e-07 2.6115244839e-07 3.4847506917e-07 3.2494525911e-07 
8.772210904e-09 -3.04013851e-07 -3.1738270214e-07 0 0 1.255615695e-10 2.5849394142e-26 -7.5336941698e-10 2.0679515314e-25 
4.3946549324e-09 1.6543612251e-24 -2.5614560177e-08 1.3234889801e-23 1.4929270613e-07 2.623542409e-07 1.7927528697e-07 -6.6174449004e-24 -1.7552746438e-07 
-2.623542409e-07 -1.7552746427e-07 -6.6174449004e-24 1.7927528642e-07 2.623542409e-07 1.4929270933e-07 -1.6130021945e-23 -2.5614578845e-08 -2.5849394142e-26 
4.394763738e-09 4.8467614017e-25 -7.540035825e-10 8.8857292364e-27 1.29257757e-10 1.0097419587e-27 -2.15429595e-11 -8.0779356695e-28 0 

P2 1 1089 double
0 0 1.255615695e-10 2.5849394142e-26 -7.5336941698e-10 2.0679515314e-25 4.3946549324e-09 1.6543612251e-24 -2.5614560177e-08 
1.3234889801e-23 1.4929270613e-07 2.623542409e-07 1.7927528697e-07 -6.6174449004e-24 -1.7552746438e-07 -2.623542409e-07 -1.7552746427e-07 -6.6174449004e-24 
1.7927528642e-07 2.623542409e-07 1.4929270933e-07 -1.6130021945e-23 -2.5614578845e-08 -2.5849394142e-26 4.394763738e-09 4.8467614017e-25 -7.540035825e-10 
8.8857292364e-27 1.29257757e-10 1.0097419587e-27 -2.15429595e-11 -8.0779356695e-28 0 3.1737544988e-07 3.0386730176e-07 3.1704156824e-07 
3.3377247621e-07 3.3093425255e-07 3.2002037878e-07 3.1252433638e-07 2.5119367691e-07 7.877595192e-08 -7.7483922123e-08 -9.0341028756e-08 -4.1177404962e-08 
-1.1375087728e-08 -9.9118876823e-09 -4.5765615457e-08 -3.5035725425e-08 1.0617832804e-07 2.5262208158e-07 2.7904107183e-07 2.7837746186e-07 3.4357341472e-07 