# vtk DataFile Version 5.1
vtk output
ASCII
DATASET UNSTRUCTURED_GRID
POINTS 1089 double
0.03 0 0 0.0303125 0 0 0.030625 0 0 
0.0309375 0 0 0.03125 0 0 0.0315625 0 0 
0.031875 0 0 0.0321875 0 0 0.0325 0 0 
0.0328125 0 0 0.033125 0 0 0.0334375 0 0 
0.03375 0 0 0.0340625 0 0 0.034375 0 0 
0.0346875 0 0 0.035 0 0 0.0353125 0 0 
0.035625 0 0 0.0359375 0 0 0.03625 0 0 
0.0365625 0 0 0.036875 0 0 0.0371875 0 0 
0.0375 0 0 0.0378125 0 0 0.038125 0 0 
0.0384375 0 0 0.03875 0 0 0.0390625 0 0 
0.039375 0 0 0.0396875 0 0 0.04 0 0 
0.029970174201 0.0013374073245 0 0.030282363516 0.0013513386508 0 0.03059455283 0.0013652699771 0 
0.030906742145 0.0013792013033 0 0.03121893146 0.0013931326296 0 0.031531120774 0.0014070639559 0 
0.031843310089 0.0014209952822 0 0.032155499403 0.0014349266085 0 0.032467688718 0.0014488579348 0 
0.032779878033 0.0014627892611 0 0.033092067347 0.0014767205874 0 0.033404256662 0.0014906519137 0 
0.033716445976 0.00150458324 0 0.034028635291 0.0015185145663 0 0.034340824606 0.0015324458926 0 
0.03465301392 0.0015463772189 0 0.034965203235 0.0015603085452 0 0.035277392549 0.0015742398715 0 
0.035589581864 0.0015881711978 0 0.035901771178 0.0016021025241 0 0.036213960493 0.0016160338504 0 
0.036526149808 0.0016299651767 0 0.036838339122 0.001643896503 0 0.037150528437 0.0016578278293 0 
0.037462717751 0.0016717591556 0 0.037774907066 0.0016856904819 0 0.038087096381 0.0016996218082 0 
0.038399285695 0.0017135531345 0 0.03871147501 0.0017274844608 0 0.039023664324 0.0017414157871 0 
0.039335853639 0.0017553471134 0 0.039648042954 0.0017692784396 0 0.039960232268 0.0017832097659 0 
0.029878647258 0.0026956331369 0 0.030189883167 0.0027237126488 0 0.030501119076 0.0027517921606 0 
0.030812354985 0.0027798716725 0 0.031123590894 0.0028079511843 0 0.031434826803 0.0028360306961 0 
0.031746062712 0.002864110208 0 0.032057298621 0.0028921897198 0 0.03236853453 0.0029202692317 0 
0.032679770439 0.0029483487435 0 0.032991006348 0.0029764282554 0 0.033302242257 0.0030045077672 0 
0.033613478166 0.003032587279 0 0.033924714075 0.0030606667909 0 0.034235949984 0.0030887463027 0 
0.034547185893 0.0031168258146 0 0.034858421801 0.0031449053264 0 0.03516965771 0.0031729848383 0 
0.035480893619 0.0032010643501 0 0.035792129528 0.0032291438619 0 0.036103365437 0.0032572233738 0 
0.036414601346 0.0032853028856 0 0.036725837255 0.0033133823975 0 0.037037073164 0.0033414619093 0 
0.037348309073 0.0033695414212 0 0.037659544982 0.003397620933 0 0.037970780891 0.0034257004448 0 
0.0382820168 0.0034537799567 0 0.038593252709 0.0034818594685 0 0.038904488618 0.0035099389804 0 
0.039215724527 0.0035380184922 0 0.039526960436 0.0035660980041 0 0.039838196345 0.0035941775159 0 
0.02972251814 0.0040708617533 0 0.030032127704 0.0041132665632 0 0.030341737268 0.0041556713732 0 
0.030651346832 0.0041980761831 0 0.030960956396 0.004240480993 0 0.03127056596 0.004282885803 0 
0.031580175524 0.0043252906129 0 0.031889785088 0.0043676954228 0 0.032199394652 0.0044101002328 0 
0.032509004216 0.0044525050427 0 0.03281861378 0.0044949098526 0 0.033128223344 0.0045373146625 0 
0.033437832908 0.0045797194725 0 0.033747442472 0.0046221242824 0 0.034057052035 0.0046645290923 0 
0.034366661599 0.0047069339023 0 0.034676271163 0.0047493387122 0 0.034985880727 0.0047917435221 0 
0.035295490291 0.0048341483321 0 0.035605099855 0.004876553142 0 0.035914709419 0.0049189579519 0 
0.036224318983 0.0049613627618 0 0.036533928547 0.0050037675718 0 0.036843538111 0.0050461723817 0 
0.037153147675 0.0050885771916 0 0.037462757239 0.0051309820016 0 0.037772366803 0.0051733868115 0 
0.038081976367 0.0052157916214 0 0.038391585931 0.0052581964314 0 0.038701195495 0.0053006012413 0 
0.039010805059 0.0053430060512 0 0.039320414623 0.0053854108611 0 0.039630024187 0.0054278156711 0 
0.029499161052 0.0054588915724 0 0.02980644398 0.0055157550262 0 0.030113726908 0.0055726184801 0 
0.030421009835 0.005629481934 0 0.030728292763 0.0056863453879 0 0.031035575691 0.0057432088418 0 
0.031342858618 0.0058000722956 0 0.031650141546 0.0058569357495 0 0.031957424474 0.0059137992034 0 
0.032264707401 0.0059706626573 0 0.032571990329 0.0060275261112 0 0.032879273256 0.006084389565 0 
0.033186556184 0.0061412530189 0 0.033493839112 0.0061981164728 0 0.033801122039 0.0062549799267 0 
0.034108404967 0.0063118433805 0 0.034415687895 0.0063687068344 0 0.034722970822 0.0064255702883 0 
0.03503025375 0.0064824337422 0 0.035337536677 0.0065392971961 0 0.035644819605 0.0065961606499 0 
0.035952102533 0.0066530241038 0 0.03625938546 0.0067098875577 0 0.036566668388 0.0067667510116 0 
0.036873951316 0.0068236144655 0 0.037181234243 0.0068804779193 0 0.037488517171 0.0069373413732 0 
0.037795800099 0.0069942048271 0 0.038103083026 0.007051068281 0 0.038410365954 0.0071079317348 0 
0.038717648881 0.0071647951887 0 0.039024931809 0.0072216586426 0 0.039332214737 0.0072785220965 0 
0.029206281031 0.0068551548722 0 0.029510513125 0.0069265627354 0 0.029814745219 0.0069979705987 0 
0.030118977314 0.0070693784619 0 0.030423209408 0.0071407863252 0 0.030727441502 0.0072121941885 0 
0.031031673596 0.0072836020517 0 0.03133590569 0.007355009915 0 0.031640137784 0.0074264177782 0 
0.031944369878 0.0074978256415 0 0.032248601972 0.0075692335047 0 0.032552834066 0.007640641368 0 
0.03285706616 0.0077120492312 0 0.033161298254 0.0077834570945 0 0.033465530348 0.0078548649577 0 
0.033769762442 0.007926272821 0 0.034073994536 0.0079976806842 0 0.034378226631 0.0080690885475 0 
0.034682458725 0.0081404964107 0 0.034986690819 0.008211904274 0 0.035290922913 0.0082833121372 0 
0.035595155007 0.0083547200005 0 0.035899387101 0.0084261278637 0 0.036203619195 0.008497535727 0 
0.036507851289 0.0085689435902 0 0.036812083383 0.0086403514535 0 0.037116315477 0.0087117593167 0 
0.037420547571 0.00878316718 0 0.037724779665 0.0088545750432 0 0.038029011759 0.0089259829065 0 
0.038333243854 0.0089973907698 0 0.038637475948 0.009068798633 0 0.038941708042 0.0091402064963 0 
0.028841968746 0.0082547464454 0 0.02914240592 0.0083407333875 0 0.029442843094 0.0084267203296 0 
0.029743280269 0.0085127072718 0 0.030043717443 0.0085986942139 0 0.030344154618 0.0086846811561 0 
0.030644591792 0.0087706680982 0 0.030945028967 0.0088566550403 0 0.031245466141 0.0089426419825 0 
0.031545903316 0.0090286289246 0 0.03184634049 0.0091146158668 0 0.032146777664 0.0092006028089 0 
0.032447214839 0.009286589751 0 0.032747652013 0.0093725766932 0 0.033048089188 0.0094585636353 0 
0.033348526362 0.0095445505774 0 0.033648963537 0.0096305375196 0 0.033949400711 0.0097165244617 0 
0.034249837885 0.0098025114039 0 0.03455027506 0.009888498346 0 0.034850712234 0.0099744852881 0 
0.035151149409 0.01006047223 0 0.035451586583 0.010146459172 0 0.035752023758 0.010232446115 0 
0.036052460932 0.010318433057 0 0.036352898106 0.010404419999 0 0.036653335281 0.010490406941 0 
0.036953772455 0.010576393883 0 0.03725420963 0.010662380825 0 0.037554646804 0.010748367767 0 
0.037855083979 0.01083435471 0 0.038155521153 0.010920341652 0 0.038455958327 0.011006328594 0 
0.028404752965 0.0096524612915 0 0.028700635809 0.0097530077632 0 0.028996518652 0.009853554235 0 
0.029292401495 0.0099541007068 0 0.029588284339 0.010054647179 0 0.029884167182 0.01015519365 0 
0.030180050026 0.010255740122 0 0.030475932869 0.010356286594 0 0.030771815712 0.010456833066 0 
0.031067698556 0.010557379538 0 0.031363581399 0.010657926009 0 0.031659464243 0.010758472481 0 
0.031955347086 0.010859018953 0 0.032251229929 0.010959565425 0 0.032547112773 0.011060111896 0 
0.032842995616 0.011160658368 0 0.033138878459 0.01126120484 0 0.033434761303 0.011361751312 0 
0.033730644146 0.011462297784 0 0.03402652699 0.011562844255 0 0.034322409833 0.011663390727 0 
0.034618292676 0.011763937199 0 0.03491417552 0.011864483671 0 0.035210058363 0.011965030143 0 
0.035505941207 0.012065576614 0 0.03580182405 0.012166123086 0 0.036097706893 0.012266669558 0 
0.036393589737 0.01236721603 0 0.03668947258 0.012467762501 0 0.036985355424 0.012568308973 0 
0.037281238267 0.012668855445 0 0.03757712111 0.012769401917 0 0.037873003954 0.012869948389 0 
0.027893649032 0.011042841287 0 0.028184207876 0.011157870884 0 0.02847476672 0.01127290048 0 
0.028765325564 0.011387930077 0 0.029055884408 0.011502959674 0 0.029346443252 0.011617989271 0 
0.029637002096 0.011733018867 0 0.02992756094 0.011848048464 0 0.030218119785 0.011963078061 0 
0.030508678629 0.012078107657 0 0.030799237473 0.012193137254 0 0.031089796317 0.012308166851 0 
0.031380355161 0.012423196448 0 0.031670914005 0.012538226044 0 0.031961472849 0.012653255641 0 
0.032252031693 0.012768285238 0 0.032542590537 0.012883314835 0 0.032833149381 0.012998344431 0 
0.033123708225 0.013113374028 0 0.033414267069 0.013228403625 0 0.033704825914 0.013343433222 0 
0.033995384758 0.013458462818 0 0.034285943602 0.013573492415 0 0.034576502446 0.013688522012 0 
0.03486706129 0.013803551609 0 0.035157620134 0.013918581205 0 0.035448178978 0.014033610802 0 
0.035738737822 0.014148640399 0 0.036029296666 0.014263669996 0 0.03631985551 0.014378699592 0 
0.036610414354 0.014493729189 0 0.036900973198 0.014608758786 0 0.037191532042 0.014723788382 0 
0.027308201633 0.012420230416 0 0.027592662066 0.012549607816 0 0.0278771225 0.012678985216 0 
0.028161582934 0.012808362617 0 0.028446043367 0.012937740017 0 0.028730503801 0.013067117417 0 
0.029014964235 0.013196494817 0 0.029299424668 0.013325872217 0 0.029583885102 0.013455249617 0 
0.029868345536 0.013584627018 0 0.030152805969 0.013714004418 0 0.030437266403 0.013843381818 0 
0.030721726837 0.013972759218 0 0.03100618727 0.014102136618 0 0.031290647704 0.014231514018 0 
0.031575108138 0.014360891419 0 0.031859568571 0.014490268819 0 0.032144029005 0.014619646219 0 
0.032428489439 0.014749023619 0 0.032712949873 0.014878401019 0 0.032997410306 0.015007778419 0 
0.03328187074 0.01513715582 0 0.033566331174 0.01526653322 0 0.033850791607 0.01539591062 0 
[...]
POINT_DATA 1089
FIELD FieldData 11
P1 1 1089 double
2487827.2301 -3272063.0375 -4278002.0414 -3548789.5746 -4103225.4299 -5467253.6609 -7166818.3209 -6149411.1904 637475.95018 
10176014.687 19448376.606 27533973.704 33512217.974 37896175.524 41198912.459 43567714.25 45149866.368 46059796.374 
46411931.832 46251881.814 45625255.393 44530322.667 42965353.732 40897582.074 38294241.179 35087358.891 31208963.059 
26699567.682 21599686.763 15736126.25 8935692.091 3224763.0075 629717.72103 2532742.2959 -3331136.6481 -4355236.8089 
-3612859.1894 -4177304.7926 -5565959.098 -7296207.5849 -6260432.2533 648984.89659 10359731.777 19799496.301 28031070.229 
34117245.323 38580350.55 41942714.878 44354282.859 45964999.046 46891356.868 47249849.756 47086910.206 46448970.713 
45334270.144 43741047.365 41635944.295 38985602.857 35720823.73 31772407.598 27181599.898 21989646.069 16020225.225 
9097016.4808 3282982.6642 641086.60298 2576253.0554 -3388363.2678 -4430056.7595 -3674925.606 -4249067.9938 -5661578.4188 
-7421551.3767 -6367982.1424 660134.00925 10537704.797 20139637.939 28512624.608 34703355.976 39243134.261 42663261.68 
45116258.729 46754645.904 47696917.912 48061569.46 47895830.721 47246931.87 46113081.517 44492488.273 42351220.991 
39655348.521 36334482.75 32318235.562 27648560.964 22367412.963 16295441.602 9253296.9254 3339382.0334 652100.02686 
2618128.7892 -3443439.4559 -4502065.1659 -3734659.7248 -4318134.5164 -5753604.6077 -7542185.0655 -6471490.5785 670864.16465 
10708990.036 20466997.906 28976083.379 35267442.059 39881012.22 43356732.138 45849601.455 47514619.812 48472207.991 
48842786.771 48674354.03 48014907.645 46862627.109 45215691.915 43039619.38 40299926.821 36925082 32843552.679 
28097974.804 22730984.324 16560316.038 9403704.7425 3393662.0556 662699.59395 2658134.9782 -3496056.7653 -4570858.7543 
-3791727.012 -4384117.5618 -5841522.2837 -7657433.0579 -6570377.8759 681115.27084 10872628.235 20779742.868 29418851.007 
35806344.486 40490412.081 44019242.567 46550204.052 48240664.641 49212885.199 49589126.591 49418120.122 48748597.098 
47578709.196 45906608.089 43697284.183 40915727.886 37489313.914 33345416.983 28527324.537 23078324.021 16813365.139 
9547397.594 3445518.7431 672825.94281 2696035.8914 -3545905.1536 -4636032.1646 -3845791.203 -4446628.3301 -5924813.4 
-7766616.2667 -6664061.351 690826.92628 11027655.178 21076030.017 29838318.54 36316887.844 41067743.032 44646889.21 
47213938.309 48928502.265 49914585.192 50296191.206 50122746.448 49443677.057 48257108.354 46561165.658 44320340.195 
41499123.186 38023853.825 33820871.302 28934080.274 23407385.398 17053097.846 9683528.7877 3494646.5367 682419.40511 
2731597.4512 -3592676.7555 -4697182.8838 -3896518.3957 -4505280.7531 -6002963.5481 -7869060.3729 -6751962.4117 699939.15081 
11173113.412 21354029.47 30231895.329 36795918.996 41609439.456 45235795.695 47836704.978 49573884.571 50572974.241 
50959613.758 50783881.209 50095854.68 48893634.763 47175322.051 44904939.396 42046509.65 38525400.394 34266979.212 
29315729.876 23716136.16 17278033.56 9811257.5724 3540742.0216 691420.73127 2764590.331 -3636069.9545 -4753916.5688 
-3943581.4658 -4559696.5988 -6075468.7607 -7964104.744 -6833514.2097 708393.1813 11308064.917 21611948.485 30597043.307 
37240348.803 42112008.101 45782164.328 48414488.009 50172649.667 51183806.578 51575116.019 51397260.931 50700924.254 
49484183.641 47745116.742 45447311.869 42554357.332 38990719.287 34680863.887 29669812.191 24002585.259 17486721.733 
9929760.2606 3583507.9407 699771.87429 2794793.2228 -3675793.68 -4805852.6646 -3986664.726 -4609510.8596 -6141842.6911 
-8051111.8466 -6908169.716 716132.31056 11431604.472 21848057.008 30931313.154 37647196.144 42572077.866 46282330.208 
48943411.779 50720781.19 51742984.896 52138569.356 51958771.218 51254827.128 50024793.737 48266727.694 45943819.517 
43019259.721 39416689.262 35059749.094 29993952.125 24264811.266 17677762.539 10038241.966 3622657.4312 707416.81683 
2821996.2042 -3711571.8358 -4852630.1935 -4025468.7298 -4654377.3053 -6201624.0128 -8129476.945 -6975410.0438 723102.74893 
11542873.428 22060713.989 31232381.559 38013633.263 42986451.078 46732816.977 49419800.054 51214469.401 52246622.677 
52646057.539 52464509.344 51753713.449 50511707.589 48736529.497 46391011.408 43437985.555 39800349.655 35401001.425 
30285896.773 24500991.605 17849828.165 10135948.697 3657918.3879 714302.42339 2846004.119 -3743147.7466 -4893913.5702 
-4059715.0941 -4693974.0608 -6254383.8502 -8198637.8423 -7034752.806 729254.48983 11641073.533 22248393.81 31498088.633 
38337031.313 43352154.991 47130392.808 49840235.186 51650172.545 52691106.784 53093939.808 52910847.106 52194004.17 
50941432.041 49151151.758 46785679.355 43807530.863 40138948.056 35702172.711 30543551.701 24709431.899 18001684.2 
10222179.498 3689037.846 720379.2961 2866639.8798 -3770288.502 -4929398.2799 -4089151.211 -4728009.0523 -6299733.0359 
-8258084.3936 -7085760.2785 734542.15657 11725480.441 22409712.106 31726474.467 38615004.843 43666492.099 47472125.102 
50201615.962 52024676.785 53073158.614 53478912.492 53294492.225 52572451.616 51310797.356 49507536.139 47124912.207 
44125169.803 40429986.895 35961041.451 30765016.394 24888594.65 18132210.522 10296298.313 3715786.2623 725602.6107 
2883747.5958 -3792789.0698 -4958816.2568 -4113554.7079 -4756225.1658 -6337328.9838 -8307367.5155 -7128047.1298 738925.80398 
11795456.51 22543450.213 31915813.742 38845453.927 43927087.771 47755432.273 50501212.362 52335152.964 53389891.989 
53798067.352 53612546.489 52886196.84 51617013.2 49802990.366 47406147.258 44388502.801 40671267.545 36175652.044 
30948617.818 25037126.39 18240421.083 10357745.218 3737961.5682 729932.90816 2897195.426 -3810476.0488 -4981940.7906 
-4132737.5189 -4778404.9531 -6366881.96 -8346107.4065 -7161287.4756 742371.64948 11850462.467 22648577.475 32064647.309 
39026602.606 44131933.721 47978131.009 50736715.541 52579208.39 53638865.998 54048944.812 53862558.806 53132821.958 
51857719.713 50035237.514 47627217.167 44595500.475 40860930.572 36344350.589 31092941.044 25153882.456 18325481.955 
10406046.67 3755392.8692 733336.81695 2906878.0652 -3823210.9387 -4998590.8015 -4146549.4303 -4794374.7323 -6388160.5456 
-8374000.7084 -7185221.0226 744852.70989 11890067.58 22724270.679 32171809.708 39157032.369 44279425.874 48138477.435 
50906281.359 52754931.953 53818131.015 54229580.342 54042571.421 53310395.739 52031032.008 50202458.94 47786390.813 
44744541.903 40997490.793 36465816.069 31196855.929 25237948.572 18386727.057 10440824.44 3767943.6671 735787.68228 
2912718.7768 -3830892.8132 -5008634.335 -4154880.9801 -4804007.9399 -6400996.1041 -8390826.3619 -7199658.0932 746349.32234 
11913957.972 22769929.942 32236451.657 39235709.537 44368395.329 48235200.778 51008565.976 52860931.014 53926266.333 
54338542.374 54151157.701 53417510.878 52135576.556 50303329.386 47882406.718 44834445.903 41079865.945 36539085.849 
31259538.929 25288658.501 18423671.011 10461802.907 3775514.4946 737266.0806 2914670.9 -3833460.3027 -5011991.1545 
-4157665.6085 -4807227.6175 -6405286.0935 -8396449.9486 -7204483.3512 746849.53054 11921942.784 22785190.498 32258056.737 
39262005.566 44398131.318 48267528.325 51042752.25 52896358.755 53962408.069 54374960.42 54187450.161 53453311.643 
52170518.161 50337043.006 47914497.82 44864494.242 41107397.94 36563574.583 31280489.277 25305607.125 18436018.676 
10468814.476 3778044.8691 737760.20115 2912718.7768 -3830892.8132 -5008634.335 -4154880.9801 -4804007.9399 -6400996.1041 
-8390826.3619 -7199658.0932 746349.32234 11913957.972 22769929.942 32236451.657 39235709.537 44368395.329 48235200.778 
51008565.976 52860931.014 53926266.333 54338542.374 54151157.701 53417510.878 52135576.556 50303329.386 47882406.718 
44834445.903 41079865.945 36539085.849 31259538.929 25288658.501 18423671.011 10461802.907 3775514.4946 737266.0806 
2906878.0652 -3823210.9387 -4998590.8015 -4146549.4303 -4794374.7323 -6388160.5456 -8374000.7084 -7185221.0226 744852.70989 
11890067.58 22724270.679 32171809.708 39157032.369 44279425.874 48138477.435 50906281.359 52754931.953 53818131.015 
54229580.342 54042571.421 53310395.739 52031032.008 50202458.94 47786390.813 44744541.903 40997490.793 36465816.069 
31196855.929 25237948.572 18386727.057 10440824.44 3767943.6671 735787.68228 2897195.426 -3810476.0488 -4981940.7906 
-4132737.5189 -4778404.9531 -6366881.96 -8346107.4065 -7161287.4756 742371.64948 11850462.467 22648577.475 32064647.309 
39026602.606 44131933.721 47978131.009 50736715.541 52579208.39 53638865.998 54048944.812 53862558.806 53132821.958 
51857719.713 50035237.514 47627217.167 44595500.475 40860930.572 36344350.589 31092941.044 25153882.456 18325481.955 
10406046.67 3755392.8692 733336.81695 2883747.5958 -3792789.0698 -4958816.2568 -4113554.7079 -4756225.1658 -6337328.9838 
-8307367.5155 -7128047.1298 738925.80398 11795456.51 22543450.213 31915813.742 38845453.927 43927087.771 47755432.273 
50501212.362 52335152.964 53389891.989 53798067.352 53612546.489 52886196.84 51617013.2 49802990.366 47406147.258 
44388502.801 40671267.545 36175652.044 30948617.818 25037126.39 18240421.083 10357745.218 3737961.5682 729932.90816 
2866639.8798 -3770288.502 -4929398.2799 -4089151.211 -4728009.0523 -6299733.0359 -8258084.3936 -7085760.2785 734542.15657 
11725480.441 22409712.106 31726474.467 38615004.843 43666492.099 47472125.102 50201615.962 52024676.785 53073158.614 
53478912.492 53294492.225 52572451.616 51310797.356 49507536.139 47124912.207 44125169.803 40429986.895 35961041.451 
30765016.394 24888594.65 18132210.522 10296298.313 3715786.2623 725602.6107 2846004.119 -3743147.7466 -4893913.5702 
-4059715.0941 -4693974.0608 -6254383.8502 -8198637.8423 -7034752.806 729254.48984 11641073.533 22248393.81 31498088.633 
38337031.313 43352154.991 47130392.808 49840235.186 51650172.545 52691106.784 53093939.808 52910847.106 52194004.17 
50941432.041 49151151.758 46785679.355 43807530.863 40138948.056 35702172.711 30543551.701 24709431.899 18001684.2 
10222179.498 3689037.846 720379.2961 2821996.2042 -3711571.8358 -4852630.1935 -4025468.7298 -4654377.3053 -6201624.0128 
-8129476.945 -6975410.0438 723102.74893 11542873.428 22060713.989 31232381.559 38013633.263 42986451.078 46732816.977 
49419800.054 51214469.401 52246622.677 52646057.539 52464509.344 51753713.449 50511707.589 48736529.497 46391011.408 
43437985.555 39800349.655 35401001.425 30285896.773 24500991.605 17849828.165 10135948.697 3657918.3879 714302.42339 
2794793.2228 -3675793.68 -4805852.6646 -3986664.726 -4609510.8596 -6141842.6911 -8051111.8466 -6908169.716 716132.31055 
11431604.472 21848057.008 30931313.154 37647196.144 42572077.866 46282330.208 48943411.779 50720781.19 51742984.896 
52138569.356 51958771.218 51254827.128 50024793.737 48266727.694 45943819.517 43019259.721 39416689.262 35059749.094 
29993952.125 24264811.266 17677762.539 10038241.966 3622657.4312 707416.81683 2764590.331 -3636069.9545 -4753916.5688 
-3943581.4658 -4559696.5988 -6075468.7607 -7964104.744 -6833514.2097 708393.1813 11308064.917 21611948.485 30597043.307 
37240348.803 42112008.101 45782164.328 48414488.009 50172649.667 51183806.578 51575116.019 51397260.931 50700924.254 
49484183.641 47745116.742 45447311.869 42554357.332 38990719.287 34680863.887 29669812.191 24002585.259 17486721.733 
9929760.2606 3583507.9407 699771.87429 2731597.4512 -3592676.7555 -4697182.8838 -3896518.3957 -4505280.7531 -6002963.5481 
-7869060.3729 -6751962.4117 699939.15081 11173113.412 21354029.47 30231895.329 36795918.996 41609439.456 45235795.695 
47836704.978 49573884.571 50572974.241 50959613.758 50783881.209 50095854.68 48893634.763 47175322.051 44904939.396 
42046509.65 38525400.394 34266979.212 29315729.876 23716136.16 17278033.56 9811257.5724 3540742.0216 691420.73127 
2696035.8914 -3545905.1536 -4636032.1646 -3845791.203 -4446628.3301 -5924813.4 -7766616.2667 -6664061.351 690826.92628 
11027655.178 21076030.017 29838318.54 36316887.844 41067743.032 44646889.21 47213938.309 48928502.265 49914585.192 
50296191.206 50122746.448 49443677.057 48257108.354 46561165.658 44320340.195 41499123.186 38023853.825 33820871.302 
28934080.274 23407385.398 17053097.846 9683528.7877 3494646.5367 682419.40511 2658134.9782 -3496056.7653 -4570858.7543 
-3791727.012 -4384117.5618 -5841522.2837 -7657433.0579 -6570377.8759 681115.27084 10872628.235 20779742.868 29418851.007 
35806344.486 40490412.081 44019242.567 46550204.052 48240664.641 49212885.199 49589126.591 49418120.122 48748597.098 
47578709.196 45906608.089 43697284.183 40915727.886 37489313.914 33345416.983 28527324.537 23078324.021 16813365.139 
9547397.594 3445518.7431 672825.94281 2618128.7892 -3443439.4559 -4502065.1659 -3734659.7248 -4318134.5164 -5753604.6077 
-7542185.0655 -6471490.5785 670864.16464 10708990.036 20466997.906 28976083.379 35267442.059 39881012.22 43356732.138 
45849601.455 47514619.812 48472207.991 48842786.771 48674354.03 48014907.645 46862627.109 45215691.915 43039619.38 
40299926.821 36925082 32843552.679 28097974.804 22730984.324 16560316.038 9403704.7425 3393662.0556 662699.59395 
2576253.0554 -3388363.2678 -4430056.7595 -3674925.606 -4249067.9938 -5661578.4188 -7421551.3767 -6367982.1424 660134.00925 
10537704.797 20139637.939 28512624.608 34703355.976 39243134.261 42663261.68 45116258.729 46754645.904 47696917.912 
48061569.46 47895830.721 47246931.87 46113081.517 44492488.273 42351220.991 39655348.521 36334482.75 32318235.562 
27648560.965 22367412.963 16295441.602 9253296.9254 3339382.0334 652100.02686 2532742.2959 -3331136.6481 -4355236.8089 
-3612859.1894 -4177304.7926 -5565959.098 -7296207.5849 -6260432.2533 648984.89659 10359731.777 19799496.301 28031070.229 
34117245.323 38580350.55 41942714.878 44354282.859 45964999.046 46891356.868 47249849.756 47086910.206 46448970.713 
45334270.144 43741047.365 41635944.295 38985602.857 35720823.73 31772407.598 27181599.898 21989646.069 16020225.225 
9097016.4808 3282982.6642 641086.60298 2487827.2301 -3272063.0375 -4278002.0414 -3548789.5746 -4103225.4299 -5467253.6609 
-7166818.3209 -6149411.1904 637475.95017 10176014.687 19448376.606 27533973.704 33512217.974 37896175.524 41198912.459 
43567714.25 45149866.368 46059796.374 46411931.832 46251881.814 45625255.393 44530322.667 42965353.732 40897582.074 
38294241.179 35087358.891 31208963.059 26699567.682 21599686.763 15736126.25 8935692.091 3224763.0075 629717.72102 

P2 1 1089 double
-211844193.71 -182560218.64 -148660193.68 -114555518.86 -84657594.192 -58281333.428 -34741650.305 -17243041.733 -8990004.6195 
-6389310.6533 -5847731.5212 -6115328.1275 -5942161.3763 -5557942.5021 -5192382.7395 -4820644.8078 -4417891.4262 -3997402.5974 
-3572458.3241 -3146843.6197 -2724343.4978 -2311068.085 -1913127.5082 -1530254.4552 -1162181.6142 -829734.17968 -553737.34627 
-313772.34154 -89420.393086 72097.350628 123559.74112 -321994.04863 -1651524.8457 -215668814.67 -185856148.66 -151344094.91 
-116623696.56 -86185996.756 -59333540.738 -35368873.745 -17554346.459 -9152309.5654 -6504662.8445 -5953306.0788 -6225733.856 
-6049440.7635 -5658285.2272 -5286125.6729 -4907676.4092 -4497651.7447 -4069571.4385 -3636955.2494 -3203656.5254 -2773528.6143 
-2352791.9546 -1947666.9849 -1557881.5672 -1183163.5634 -844714.1449 -563734.48288 -319437.16581 -91034.782125 73398.99217 
125790.48108 -327807.30728 -1681341.3648 -219373855.58 -189049028.61 -153944081.67 -118627210.92 -87666612.507 -60352849.886 
-35976486.507 -17855917.977 -9309539.9056 -6616408.4466 -6055579.7535 -6332687.6516 -6153365.9661 -5755490.6487 -5376937.6511 
-4991986.8912 -4574918.2871 -4139483.8577 -3699435.6222 -3258693.1261 -2821175.9154 -2393211.2914 -1981126.5553 -1584644.8941 
-1203489.4945 -859225.74938 -573419.05136 -324924.87556 -92598.697064 74659.93564 127951.47408 -333438.81009 -1710225.6452 
-222939670.34 -192121928.13 -156446367.44 -120555438.23 -89091590.428 -61333855.951 -36561266.704 -18146157.193 -9460861.9248 
-6723954.9307 -6154010.2414 -6435622.3929 -6253385.9211 -5849043.3349 -5464337.1434 -5073129.1971 -4649281.3468 -4206769.1437 
-3759568.1392 -3311661.5894 -2867032.7504 -2432111.7706 -2013328.7987 -1610402.5219 -1223051.6277 -873192.04373 -582739.6976 
-330206.37049 -94103.843583 75873.496401 130031.26273 -338858.6949 -1738024.5267 -226346289.09 -195057637.88 -158836938.53 
-122397579.72 -90452950.128 -62271064.945 -37119939.356 -18423438.663 -9605428.1647 -6826699.997 -6248046.2956 -6533961.6076 
-6348940.4801 -5938419.3567 -5547834.6809 -5150648.9006 -4720324.4638 -4271050.4744 -3817016.0367 -3362265.2727 -2910842.3044 
-2469275.5358 -2044093.371 -1635010.1989 -1241740.4082 -886534.81191 -591644.22286 -335252.07256 -95541.792511 77032.877904 
132018.19931 -344036.6085 -1764582.3257 -229573638.77 -197838859.55 -161101708.78 -124142780.81 -91742669.967 -63158954.48 
-37649212.554 -18686128.54 -9742386.785 -6924038.231 -6337133.8185 -6627125.8428 -6439466.5988 -6023092.0761 -5626938.264 
-5224089.2258 -4787629.0249 -4331949.08 -3871440.8101 -3410206.0002 -2952346.4352 -2504483.6041 -2073238.9961 -1658322.9276 
-1259445.7151 -899175.43375 -600080.15881 -340032.25109 -96904.071431 78131.248153 133900.57563 -348942.04099 -1789742.5537 
-232601787.14 -200448416.22 -163226690.9 -125780263.06 -92952784.586 -63992040.917 -38145817.487 -18932604.441 -9870891.9248 
-7015368.4685 -6420722.6027 -6714539.7128 -6524405.1846 -6102538.5512 -5701159.3461 -5292996.6027 -4850779.3547 -4389088.8483 
-3922506.3298 -3455187.688 -2991288.8115 -2537518.5292 -2100585.6695 -1680196.7278 -1276058.1996 -911035.84015 -607995.40463 
-344517.38338 -98182.266695 79161.823718 135666.76616 -353544.69613 -1813349.8199 -235411206.5 -202869479.57 -165198181.45 
-127299466.81 -94075490.29 -64764951.914 -38606551.688 -19161276.913 -9990114.8908 -7100101.7471 -6498273.6079 -6795639.5106 
-6603208.4926 -6176246.4544 -5770019.2963 -5356926.6668 -4909368.2143 -4442101.3009 -3969883.2885 -3496920.2616 -3027418.3049 
-2568167.2778 -2125957.0397 -1700490.541 -1291470.7322 -922039.54637 -615338.91685 -348678.54577 -99368.135315 80117.958941 
137305.38142 -357814.89255 -1835251.8876 -237983052 -205085809.74 -167002956.19 -128690201.62 -95103256.257 -65472502.98 
-39028324.668 -19370612.078 -10099255.965 -7177669.6974 -6569266.6418 -6869881.2393 -6675347.9303 -6243721.3715 -5833056.2196 
-5415450.5916 -4963002.6047 -4490630.8438 -4013253.8935 -3535123.7896 -3060492.5678 -2596224.266 -2149182.9223 -1719068.2417 
-1305579.9295 -932112.74245 -622061.43712 -352487.82633 -100453.72287 80993.240238 138805.42995 -361723.98688 -1855301.8434 
-240299448.25 -207082002.31 -168628471.2 -129942801.32 -96028939.091 -66109776.345 -39408204.934 -19559154.972 -10197556.573 
-7247533.19 -6633208.2734 -6936748.8881 -6740322.0988 -6304494.3243 -5889831.9834 -5468161.6117 -5011309.7448 -4534340.1767 
-4052316.7015 -3569532.7419 -3090281.7206 -2621494.4863 -2170101.8878 -1735800.7073 -1318287.7271 -941185.41566 -628116.24131 
-355918.74913 -101431.48421 81781.583928 140156.48573 -365244.80938 -1873360.332 -242343777.25 -208843736.45 -170063064.89 
-131048279.67 -96845897.875 -66672200.162 -39743467.194 -19725552.972 -10284311.498 -7309191.0188 -6689639.7804 -6995762.7435 
-6797664.8685 -6358129.3228 -5939939.2741 -5514681.5743 -5053943.0754 -4572915.7256 -4086791.4729 -3599900.2661 -3116572.0537 
-2643796.6482 -2188563.862 -1750567.8978 -1329502.9582 -949192.47793 -633459.89175 -358946.70043 -102294.40476 82477.334408 
141348.8562 -368352.10141 -1889297.8004 -244100959.61 -210358017.25 -171296155.43 -131998482.43 -97548106.553 -67155625.878 
-40031638.486 -19868578.694 -10358880.818 -7362188.3834 -6738144.9129 -7046487.5074 -6846953.2675 -6404230.7446 -5983008.4902 
-5554667.3387 -5090588.1246 -4606072.9493 -4116423.9148 -3626002.365 -3139169.6442 -2662966.2464 -2204432.6657 -1763260.8873 
-1339142.8968 -956074.86748 -638052.97255 -361549.34539 -103036.11938 83075.35974 142373.74621 -371022.9429 -1902996.6905 