# vtk DataFile Version 5.1
vtk output
ASCII
DATASET UNSTRUCTURED_GRID
POINTS 1089 double
0.03 0 0 0.0303125 0 0 0.030625 0 0 
0.0309375 0 0 0.03125 0 0 0.0315625 0 0 
0.031875 0 0 0.0321875 0 0 0.0325 0 0 
0.0328125 0 0 0.033125 0 0 0.0334375 0 0 
0.03375 0 0 0.0340625 0 0 0.034375 0 0 
0.0346875 0 0 0.035 0 0 0.0353125 0 0 
0.035625 0 0 0.0359375 0 0 0.03625 0 0 
0.0365625 0 0 0.036875 0 0 0.0371875 0 0 
0.0375 0 0 0.0378125 0 0 0.038125 0 0 
0.0384375 0 0 0.03875 0 0 0.0390625 0 0 
0.039375 0 0 0.0396875 0 0 0.04 0 0 
0.029970174201 0.0013374073245 0 0.030282363516 0.0013513386508 0 0.03059455283 0.0013652699771 0 
0.030906742145 0.0013792013033 0 0.03121893146 0.0013931326296 0 0.031531120774 0.0014070639559 0 
0.031843310089 0.0014209952822 0 0.032155499403 0.0014349266085 0 0.032467688718 0.0014488579348 0 
0.032779878033 0.0014627892611 0 0.033092067347 0.0014767205874 0 0.033404256662 0.0014906519137 0 
0.033716445976 0.00150458324 0 0.034028635291 0.0015185145663 0 0.034340824606 0.0015324458926 0 
0.03465301392 0.0015463772189 0 0.034965203235 0.0015603085452 0 0.035277392549 0.0015742398715 0 
0.035589581864 0.0015881711978 0 0.035901771178 0.0016021025241 0 0.036213960493 0.0016160338504 0 
0.036526149808 0.0016299651767 0 0.036838339122 0.001643896503 0 0.037150528437 0.0016578278293 0 
0.037462717751 0.0016717591556 0 0.037774907066 0.0016856904819 0 0.038087096381 0.0016996218082 0 
0.038399285695 0.0017135531345 0 0.03871147501 0.0017274844608 0 0.039023664324 0.0017414157871 0 
0.039335853639 0.0017553471134 0 0.039648042954 0.0017692784396 0 0.039960232268 0.0017832097659 0 
0.029878647258 0.0026956331369 0 0.030189883167 0.0027237126488 0 0.030501119076 0.0027517921606 0 
0.030812354985 0.0027798716725 0 0.031123590894 0.0028079511843 0 0.031434826803 0.0028360306961 0 
0.031746062712 0.002864110208 0 0.032057298621 0.0028921897198 0 0.03236853453 0.0029202692317 0 
0.032679770439 0.0029483487435 0 0.032991006348 0.0029764282554 0 0.033302242257 0.0030045077672 0 
0.033613478166 0.003032587279 0 0.033924714075 0.0030606667909 0 0.034235949984 0.0030887463027 0 
0.034547185893 0.0031168258146 0 0.034858421801 0.0031449053264 0 0.03516965771 0.0031729848383 0 
0.035480893619 0.0032010643501 0 0.035792129528 0.0032291438619 0 0.036103365437 0.0032572233738 0 
0.036414601346 0.0032853028856 0 0.036725837255 0.0033133823975 0 0.037037073164 0.0033414619093 0 
0.037348309073 0.0033695414212 0 0.037659544982 0.003397620933 0 0.037970780891 0.0034257004448 0 
0.0382820168 0.0034537799567 0 0.038593252709 0.0034818594685 0 0.038904488618 0.0035099389804 0 
0.039215724527 0.0035380184922 0 0.039526960436 0.0035660980041 0 0.039838196345 0.0035941775159 0 
0.02972251814 0.0040708617533 0 0.030032127704 0.0041132665632 0 0.030341737268 0.0041556713732 0 
0.030651346832 0.0041980761831 0 0.030960956396 0.004240480993 0 0.03127056596 0.004282885803 0 
0.031580175524 0.0043252906129 0 0.031889785088 0.0043676954228 0 0.032199394652 0.0044101002328 0 
0.032509004216 0.0044525050427 0 0.03281861378 0.0044949098526 0 0.033128223344 0.0045373146625 0 
0.033437832908 0.0045797194725 0 0.033747442472 0.0046221242824 0 0.034057052035 0.0046645290923 0 
0.034366661599 0.0047069339023 0 0.034676271163 0.0047493387122 0 0.034985880727 0.0047917435221 0 
0.035295490291 0.0048341483321 0 0.035605099855 0.004876553142 0 0.035914709419 0.0049189579519 0 
0.036224318983 0.0049613627618 0 0.036533928547 0.0050037675718 0 0.036843538111 0.0050461723817 0 
0.037153147675 0.0050885771916 0 0.037462757239 0.0051309820016 0 0.037772366803 0.0051733868115 0 
0.038081976367 0.0052157916214 0 0.038391585931 0.0052581964314 0 0.038701195495 0.0053006012413 0 
0.039010805059 0.0053430060512 0 0.039320414623 0.0053854108611 0 0.039630024187 0.0054278156711 0 
0.029499161052 0.0054588915724 0 0.02980644398 0.0055157550262 0 0.030113726908 0.0055726184801 0 
0.030421009835 0.005629481934 0 0.030728292763 0.0056863453879 0 0.031035575691 0.0057432088418 0 
0.031342858618 0.0058000722956 0 0.031650141546 0.0058569357495 0 0.031957424474 0.0059137992034 0 
0.032264707401 0.0059706626573 0 0.032571990329 0.0060275261112 0 0.032879273256 0.006084389565 0 
0.033186556184 0.0061412530189 0 0.033493839112 0.0061981164728 0 0.033801122039 0.0062549799267 0 
0.034108404967 0.0063118433805 0 0.034415687895 0.0063687068344 0 0.034722970822 0.0064255702883 0 
0.03503025375 0.0064824337422 0 0.035337536677 0.0065392971961 0 0.035644819605 0.0065961606499 0 
0.035952102533 0.0066530241038 0 0.03625938546 0.0067098875577 0 0.036566668388 0.0067667510116 0 
0.036873951316 0.0068236144655 0 0.037181234243 0.0068804779193 0 0.037488517171 0.0069373413732 0 
0.037795800099 0.0069942048271 0 0.038103083026 0.007051068281 0 0.038410365954 0.0071079317348 0 
0.038717648881 0.0071647951887 0 0.039024931809 0.0072216586426 0 0.039332214737 0.0072785220965 0 
0.029206281031 0.0068551548722 0 0.029510513125 0.0069265627354 0 0.029814745219 0.0069979705987 0 
0.030118977314 0.0070693784619 0 0.030423209408 0.0071407863252 0 0.030727441502 0.0072121941885 0 
0.031031673596 0.0072836020517 0 0.03133590569 0.007355009915 0 0.031640137784 0.0074264177782 0 
0.031944369878 0.0074978256415 0 0.032248601972 0.0075692335047 0 0.032552834066 0.007640641368 0 
0.03285706616 0.0077120492312 0 0.033161298254 0.0077834570945 0 0.033465530348 0.0078548649577 0 
0.033769762442 0.007926272821 0 0.034073994536 0.0079976806842 0 0.034378226631 0.0080690885475 0 
0.034682458725 0.0081404964107 0 0.034986690819 0.008211904274 0 0.035290922913 0.0082833121372 0 
0.035595155007 0.0083547200005 0 0.035899387101 0.0084261278637 0 0.036203619195 0.008497535727 0 
0.036507851289 0.0085689435902 0 0.036812083383 0.0086403514535 0 0.037116315477 0.0087117593167 0 
0.037420547571 0.00878316718 0 0.037724779665 0.0088545750432 0 0.038029011759 0.0089259829065 0 
0.038333243854 0.0089973907698 0 0.038637475948 0.009068798633 0 0.038941708042 0.0091402064963 0 
0.028841968746 0.0082547464454 0 0.02914240592 0.0083407333875 0 0.029442843094 0.0084267203296 0 
0.029743280269 0.0085127072718 0 0.030043717443 0.0085986942139 0 0.030344154618 0.0086846811561 0 
0.030644591792 0.0087706680982 0 0.030945028967 0.0088566550403 0 0.031245466141 0.0089426419825 0 
0.031545903316 0.0090286289246 0 0.03184634049 0.0091146158668 0 0.032146777664 0.0092006028089 0 
0.032447214839 0.009286589751 0 0.032747652013 0.0093725766932 0 0.033048089188 0.0094585636353 0 
0.033348526362 0.0095445505774 0 0.033648963537 0.0096305375196 0 0.033949400711 0.0097165244617 0 
0.034249837885 0.0098025114039 0 0.03455027506 0.009888498346 0 0.034850712234 0.0099744852881 0 
0.035151149409 0.01006047223 0 0.035451586583 0.010146459172 0 0.035752023758 0.010232446115 0 
0.036052460932 0.010318433057 0 0.036352898106 0.010404419999 0 0.036653335281 0.010490406941 0 
0.036953772455 0.010576393883 0 0.03725420963 0.010662380825 0 0.037554646804 0.010748367767 0 
0.037855083979 0.01083435471 0 0.038155521153 0.010920341652 0 0.038455958327 0.011006328594 0 
0.028404752965 0.0096524612915 0 0.028700635809 0.0097530077632 0 0.028996518652 0.009853554235 0 
0.029292401495 0.0099541007068 0 0.029588284339 0.010054647179 0 0.029884167182 0.01015519365 0 
0.030180050026 0.010255740122 0 0.030475932869 0.010356286594 0 0.030771815712 0.010456833066 0 
0.031067698556 0.010557379538 0 0.031363581399 0.010657926009 0 0.031659464243 0.010758472481 0 
0.031955347086 0.010859018953 0 0.032251229929 0.010959565425 0 0.032547112773 0.011060111896 0 
0.032842995616 0.011160658368 0 0.033138878459 0.01126120484 0 0.033434761303 0.011361751312 0 
0.033730644146 0.011462297784 0 0.03402652699 0.011562844255 0 0.034322409833 0.011663390727 0 
0.034618292676 0.011763937199 0 0.03491417552 0.011864483671 0 0.035210058363 0.011965030143 0 
0.035505941207 0.012065576614 0 0.03580182405 0.012166123086 0 0.036097706893 0.012266669558 0 
0.036393589737 0.01236721603 0 0.03668947258 0.012467762501 0 0.036985355424 0.012568308973 0 
0.037281238267 0.012668855445 0 0.03757712111 0.012769401917 0 0.037873003954 0.012869948389 0 
0.027893649032 0.011042841287 0 0.028184207876 0.011157870884 0 0.02847476672 0.01127290048 0 
0.028765325564 0.011387930077 0 0.029055884408 0.011502959674 0 0.029346443252 0.011617989271 0 
0.029637002096 0.011733018867 0 0.02992756094 0.011848048464 0 0.030218119785 0.011963078061 0 
0.030508678629 0.012078107657 0 0.030799237473 0.012193137254 0 0.031089796317 0.012308166851 0 
0.031380355161 0.012423196448 0 0.031670914005 0.012538226044 0 0.031961472849 0.012653255641 0 
0.032252031693 0.012768285238 0 0.032542590537 0.012883314835 0 0.032833149381 0.012998344431 0 
0.033123708225 0.013113374028 0 0.033414267069 0.013228403625 0 0.033704825914 0.013343433222 0 
0.033995384758 0.013458462818 0 0.034285943602 0.013573492415 0 0.034576502446 0.013688522012 0 
0.03486706129 0.013803551609 0 0.035157620134 0.013918581205 0 0.035448178978 0.014033610802 0 
0.035738737822 0.014148640399 0 0.036029296666 0.014263669996 0 0.03631985551 0.014378699592 0 
0.036610414354 0.014493729189 0 0.036900973198 0.014608758786 0 0.037191532042 0.014723788382 0 
0.027308201633 0.012420230416 0 0.027592662066 0.012549607816 0 0.0278771225 0.012678985216 0 
0.028161582934 0.012808362617 0 0.028446043367 0.012937740017 0 0.028730503801 0.013067117417 0 
0.029014964235 0.013196494817 0 0.029299424668 0.013325872217 0 0.029583885102 0.013455249617 0 
0.029868345536 0.013584627018 0 0.030152805969 0.013714004418 0 0.030437266403 0.013843381818 0 
0.030721726837 0.013972759218 0 0.03100618727 0.014102136618 0 0.031290647704 0.014231514018 0 
0.031575108138 0.014360891419 0 0.031859568571 0.014490268819 0 0.032144029005 0.014619646219 0 
0.032428489439 0.014749023619 0 0.032712949873 0.014878401019 0 0.032997410306 0.015007778419 0 
0.03328187074 0.01513715582 0 0.033566331174 0.01526653322 0 0.033850791607 0.01539591062 0 
[...]
POINT_DATA 1089
FIELD FieldData 11
P1 1 1089 double
-10606215.52 3242295.9685 3258950.255 -1996659.4836 -3964940.0706 -3694798.0323 -2235139.8951 1622001.4372 9084593.0608 
16947913.863 22007242.731 25284049.56 27799804.245 29641118.345 30894603.421 31689341.002 32154412.619 32339586.612 
32294631.319 32034851.842 31575553.279 30900410.033 29993096.503 28790495.246 27229488.819 25242162.139 22760600.124 
19357062.485 14603808.937 9456756.145 4871820.7749 1038479.6306 -1853790.4844 -10797699.431 3300832.1607 3317787.1217 
-2032707.0455 -4036522.8387 -3761503.673 -2275492.9635 1651284.9425 9248605.6981 17253890.37 22404560.024 25740526.106 
28301700.058 30176257.12 31452372.531 32261458.252 32734926.241 32923443.353 32877676.441 32613206.921 32145616.214 
31458283.976 30534589.868 29310276.928 27721088.195 25697882.452 23171518.482 19706533.602 14867465.131 9627487.7906 
4959776.3031 1057228.2732 -1887258.6942 -10983196.43 3357538.1736 3374784.4098 -2067627.5424 -4105867.5035 -3826123.6994 
-2314584.3557 1679652.8751 9407490.3409 17550300.261 22789454.853 26182730.522 28787903.67 30694664.324 31992702.515 
32815687.768 33297289.609 33489045.315 33442492.158 33173479.236 32697855.644 31998715.514 31059152.981 29813807.192 
28197317.297 26139354.28 23569589.126 20045078.205 15122877.888 9792881.3649 5044981.8258 1075390.7227 -1919680.4919 
-11161722.918 3412113.3149 3429639.8802 -2101235.817 -4172606.3721 -3888315.4693 -2352206.7928 1706954.8111 9560404.4962 
17835571.81 23159886.299 26608318.004 29255836.967 31193591.084 32512728.251 33349090.726 33838520.771 34033393.371 
33986083.516 33712697.92 33229343.299 32518838.989 31564004.325 30298416.05 28655650.902 26564236.703 23952701.272 
20370901.15 15368692.873 9952059.8631 5126985.5385 1092870.6731 -1950883.9596 -11332279.08 3464251.9449 3482046.3236 
-2133343.65 -4236365.6818 -3947730.6855 -2388149.5749 1733037.8503 9706491.7902 18108107.394 23513779.811 27014905.109 
29702879.356 31670243.23 33009537.408 33858679.88 34355588.636 34553438.978 34505406.207 34227843.156 33737102.658 
33015741.521 32046316.553 30761389.518 29093522.177 26970150.225 24318709.355 20682177.711 15603533.435 10104131.828 
5205328.191 1109570.2302 -1980694.3467 -11493859.937 3513646.8452 3531694.9444 -2163761.8468 -4296769.7356 -4004019.2485 
-2422200.9118 1757748.3026 9844891.4226 18366301.133 23849050.118 27400096.073 30126396.696 32121812.151 33480202.602 
34341452.538 34845446.448 35046117.831 34997400.187 34715879.514 34218141.812 33486495.175 32503247.7 31199999.583 
29508351.021 27354703.054 24665456.718 20977073.73 15826015.804 10248201.195 5279548.1587 1125390.9938 -2008935.9993 
-11645467.558 3559992.9506 3578279.1101 -2192302.5441 -4353445.4767 -4056833.5188 -2454150.5017 1780933.5549 9974748.6315 
18608558.411 24163626.576 27761511.943 30523773.327 32545508.937 33921816.985 34794427.078 35305068.826 35508387.128 
35459026.883 35173792.864 34669489.845 33928192.56 32931975.741 31611537.372 29897575.435 27715520.175 24990801.836 
21253767.918 16034765.921 10383378.186 5349187.0563 1140235.2542 -2035434.4959 -11786124.268 3602991.387 3621498.4111 
-2218781.6924 -4406027.4201 -4105832.913 -2483792.3116 1802444.0913 10095226.003 18833316.978 24455480.57 28096822.046 
30892446.676 32938601.287 34331532.709 35214682.393 35731491.793 35937265.821 35887309.391 35598630.248 35088236.138 
34337985.289 33329735.929 31993348.993 30258685.419 28050274.779 25292646.648 21510475.951 16228437.614 10508791.083 
5413795.802 1154007.2852 -2060018.9549 -11914886.577 3642353.7321 3661062.9436 -2243021.6759 -4454162.8594 -4150688.7553 
-2510927.5115 1822135.6248 10205515.407 19039069.211 24722654.416 28403777.209 31229943.777 33298452.437 34706601.505 
35599399.517 36121855.012 36329877.102 36279374.903 35987541.967 35471571.849 34713124.579 33693860.189 32342873.35 
30589258.738 28356721.418 25568966.456 21745475.896 16405731.783 10623598.646 5472941.0168 1166614.7073 -2082524.47 
-12030859.536 3677806.4017 3696697.7183 -2264854.0164 -4497517.2331 -4191089.2787 -2535367.5 1839871.2917 10304850.285 
19224385.048 24963291.148 28680243.968 31533918.888 33622561.275 35044416.492 35945904.509 36473445.299 36683492.162 
36632498.401 36337824.924 35816832.637 35051003.058 34021817.708 32657681.106 30886997.773 28632730.161 25817840.724 
21957134.409 16565416.161 10727002.917 5526211.6171 1177969.8937 -2102794.6188 -12133211.144 3709095.0557 3728147.0888 
-2284122.0869 -4535779.5136 -4226744.647 -2556936.9432 1855523.8548 10392518.003 19387935.02 25175664.42 28924238.929 
31802191.268 33908602.619 35342554.159 36251711.516 36783740.318 36995574.138 36944146.553 36646966.163 36121541.574 
35349196.76 34311255.695 32935513.806 31149766.521 28876320.902 26037484.011 22143933.034 16706345.159 10818262.066 
5573225.4357 1187991.3816 -2120683.9816 -12221186.436 3735988.9025 3755179.0777 -2300683.7626 -4568667.4707 -4257391.8591 
-2575476.7404 1868977.8573 10467871.906 19528512.747 25358207.723 29133962.335 32032782.085 34154466.569 35598815.382 
36514564.843 37050451.27 37263821.052 37212020.576 36912685.396 36383451.067 35605506.147 34560039.196 33174322.1 
31375626.747 29085696.865 26226276.181 22304493.908 16827479.258 10896702.947 5613635.689 1196605.2504 -2136060.6029 
-12294120.811 3758284.7749 3777589.4746 -2314413.9296 -4595932.6553 -4282799.3933 -2590846.8345 1880131.6623 10530342.738 
19645056.249 25509542.049 29307829.85 32223949.362 34358295.769 35811264.259 36732478.788 37271563.313 37486206.456 
37434096.842 37132975.271 36600582.543 35817994.954 34766288.798 33372301.931 31562872.21 29259276.339 26382791.022 
22437604.087 16927903.36 10961732.985 5647137.1015 1203746.4274 -2148808.3214 -12351452.197 3775810.8495 3795205.573 
-2325206.7762 -4617364.9477 -4302771.446 -2602928.7755 1888899.3128 10579449.068 19736667.38 25628501.139 29444501.561 
32374219.863 34518519.406 35978263.549 36903773.993 37445372.44 37661016.533 37608663.915 37306138.118 36771262.674 
35985025.631 34928415.035 33527927.566 31710059.899 29395721.629 26505822.348 22542237.755 17006843.545 11012851.024 
5673471.4939 1209359.879 -2158828.8965 -12392731.655 3788429.8857 3807889.4278 -2332977.7875 -4632796.5194 -4317151.6231 
-2611627.954 1895212.1526 10614806.361 19802628.767 25714153.466 29542907.241 32482416.876 34633882.824 36098505.539 
37027109.107 37570517.616 37786882.407 37734354.822 37430817.962 36894154.926 36105290.221 35045148.355 33639980.354 
31816037.241 29493964.283 26594406.747 22617575.563 17063681.662 11049656.778 5692432.6509 1213401.6483 -2166043.8607 
-12417632.036 3796041.8756 3815540.5173 -2337665.3768 -4642105.0724 -4325825.9593 -2616875.4275 1899020.1512 10636134.405 
19842417.655 25765820.22 29602267.007 32547682.919 34703471.75 36171037.292 37101506.678 37646007.043 37862806.569 
37810173.443 37506026.694 36968285.355 36177835.606 35115563.626 33707572.258 31879964.345 29553225.709 26647842.171 
22663020.447 17097967.256 11071858.555 5703870.3022 1215839.7034 -2170396.0342 -12425954.414 3798586.0077 3818097.7175 
-2339232.0954 -4645216.2415 -4328725.1562 -2618629.2746 1900292.887 10643262.812 19855716.173 25783088.642 29622106.64 
32569496.589 34726730.244 36195279.358 37126372.351 37671237.643 37888182.47 37835514.069 37531163.479 36993061.742 
36202082.228 35139098.306 33730163.294 31901330.506 29573032.474 26665701.729 22678209.352 17109426.426 11079278.987 
5707693.0734 1216654.5672 -2171850.6478 -12417632.036 3796041.8756 3815540.5173 -2337665.3768 -4642105.0724 -4325825.9593 
-2616875.4275 1899020.1512 10636134.405 19842417.655 25765820.22 29602267.007 32547682.919 34703471.75 36171037.292 
37101506.678 37646007.043 37862806.569 37810173.443 37506026.694 36968285.355 36177835.606 35115563.626 33707572.258 
31879964.345 29553225.709 26647842.171 22663020.447 17097967.256 11071858.555 5703870.3022 1215839.7034 -2170396.0342 
-12392731.655 3788429.8857 3807889.4278 -2332977.7875 -4632796.5194 -4317151.6231 -2611627.954 1895212.1526 10614806.361 
19802628.767 25714153.466 29542907.241 32482416.876 34633882.824 36098505.539 37027109.107 37570517.616 37786882.407 
37734354.822 37430817.962 36894154.926 36105290.221 35045148.355 33639980.354 31816037.241 29493964.283 26594406.747 
22617575.563 17063681.662 11049656.778 5692432.6509 1213401.6483 -2166043.8607 -12351452.197 3775810.8495 3795205.573 
-2325206.7762 -4617364.9477 -4302771.446 -2602928.7755 1888899.3128 10579449.068 19736667.38 25628501.139 29444501.561 
32374219.863 34518519.406 35978263.549 36903773.993 37445372.44 37661016.533 37608663.915 37306138.118 36771262.674 
35985025.631 34928415.035 33527927.566 31710059.899 29395721.629 26505822.348 22542237.755 17006843.545 11012851.024 
5673471.4939 1209359.879 -2158828.8965 -12294120.811 3758284.7749 3777589.4746 -2314413.9296 -4595932.6553 -4282799.3933 
-2590846.8345 1880131.6623 10530342.738 19645056.249 25509542.049 29307829.85 32223949.362 34358295.769 35811264.259 
36732478.788 37271563.313 37486206.456 37434096.842 37132975.271 36600582.543 35817994.954 34766288.798 33372301.931 
31562872.21 29259276.339 26382791.022 22437604.087 16927903.36 10961732.985 5647137.1015 1203746.4274 -2148808.3214 
-12221186.436 3735988.9025 3755179.0777 -2300683.7626 -4568667.4707 -4257391.8591 -2575476.7404 1868977.8573 10467871.906 
19528512.747 25358207.723 29133962.335 32032782.085 34154466.569 35598815.382 36514564.843 37050451.27 37263821.052 
37212020.576 36912685.396 36383451.067 35605506.147 34560039.196 33174322.1 31375626.747 29085696.865 26226276.181 
22304493.908 16827479.258 10896702.947 5613635.689 1196605.2504 -2136060.6029 -12133211.144 3709095.0557 3728147.0888 
-2284122.0869 -4535779.5136 -4226744.647 -2556936.9432 1855523.8548 10392518.003 19387935.02 25175664.42 28924238.929 
31802191.268 33908602.619 35342554.159 36251711.516 36783740.318 36995574.138 36944146.552 36646966.163 36121541.574 
35349196.76 34311255.695 32935513.806 31149766.521 28876320.902 26037484.011 22143933.034 16706345.159 10818262.066 
5573225.4357 1187991.3816 -2120683.9816 -12030859.536 3677806.4017 3696697.7183 -2264854.0164 -4497517.2331 -4191089.2787 
-2535367.5 1839871.2917 10304850.285 19224385.048 24963291.148 28680243.968 31533918.888 33622561.275 35044416.492 
35945904.509 36473445.299 36683492.162 36632498.401 36337824.924 35816832.637 35051003.058 34021817.708 32657681.106 
30886997.773 28632730.161 25817840.724 21957134.409 16565416.161 10727002.917 5526211.6171 1177969.8937 -2102794.6188 
-11914886.577 3642353.7321 3661062.9436 -2243021.6759 -4454162.8594 -4150688.7553 -2510927.5115 1822135.6248 10205515.407 
19039069.211 24722654.416 28403777.209 31229943.777 33298452.437 34706601.505 35599399.517 36121855.012 36329877.102 
36279374.903 35987541.967 35471571.849 34713124.579 33693860.189 32342873.35 30589258.738 28356721.418 25568966.456 
21745475.896 16405731.783 10623598.646 5472941.0168 1166614.7073 -2082524.47 -11786124.268 3602991.387 3621498.4111 
-2218781.6924 -4406027.4201 -4105832.913 -2483792.3116 1802444.0913 10095226.003 18833316.978 24455480.57 28096822.046 
30892446.676 32938601.287 34331532.709 35214682.393 35731491.793 35937265.821 35887309.391 35598630.248 35088236.138 
34337985.289 33329735.929 31993348.993 30258685.419 28050274.779 25292646.648 21510475.951 16228437.614 10508791.083 
5413795.802 1154007.2852 -2060018.9549 -11645467.558 3559992.9506 3578279.1101 -2192302.5441 -4353445.4767 -4056833.5188 
-2454150.5017 1780933.5549 9974748.6315 18608558.411 24163626.576 27761511.943 30523773.327 32545508.937 33921816.985 
34794427.078 35305068.826 35508387.128 35459026.883 35173792.864 34669489.845 33928192.56 32931975.741 31611537.372 
29897575.435 27715520.175 24990801.836 21253767.918 16034765.921 10383378.186 5349187.0563 1140235.2542 -2035434.4959 
-11493859.937 3513646.8452 3531694.9444 -2163761.8468 -4296769.7356 -4004019.2485 -2422200.9118 1757748.3026 9844891.4226 
18366301.133 23849050.117 27400096.073 30126396.696 32121812.151 33480202.602 34341452.538 34845446.448 35046117.831 
34997400.187 34715879.514 34218141.812 33486495.175 32503247.7 31199999.583 29508351.021 27354703.054 24665456.718 
20977073.73 15826015.804 10248201.195 5279548.1587 1125390.9938 -2008935.9993 -11332279.08 3464251.9449 3482046.3236 
-2133343.65 -4236365.6817 -3947730.6855 -2388149.5749 1733037.8503 9706491.7902 18108107.394 23513779.811 27014905.109 
29702879.356 31670243.23 33009537.408 33858679.88 34355588.636 34553438.978 34505406.207 34227843.156 33737102.658 
33015741.521 32046316.553 30761389.518 29093522.177 26970150.225 24318709.355 20682177.711 15603533.435 10104131.828 
5205328.191 1109570.2302 -1980694.3467 -11161722.918 3412113.3149 3429639.8802 -2101235.817 -4172606.3721 -3888315.4693 
-2352206.7928 1706954.8111 9560404.4962 17835571.81 23159886.299 26608318.004 29255836.967 31193591.084 32512728.251 
33349090.726 33838520.771 34033393.371 33986083.516 33712697.92 33229343.299 32518838.989 31564004.325 30298416.05 
28655650.902 26564236.703 23952701.272 20370901.15 15368692.873 9952059.8631 5126985.5385 1092870.6731 -1950883.9596 
-10983196.43 3357538.1736 3374784.4098 -2067627.5424 -4105867.5035 -3826123.6994 -2314584.3557 1679652.8751 9407490.3409 
17550300.261 22789454.853 26182730.522 28787903.67 30694664.324 31992702.515 32815687.768 33297289.609 33489045.315 
33442492.158 33173479.236 32697855.644 31998715.514 31059152.981 29813807.192 28197317.297 26139354.28 23569589.126 
20045078.205 15122877.888 9792881.3649 5044981.8258 1075390.7227 -1919680.4919 -10797699.431 3300832.1607 3317787.1217 
-2032707.0455 -4036522.8387 -3761503.673 -2275492.9635 1651284.9425 9248605.6981 17253890.37 22404560.024 25740526.106 
28301700.058 30176257.12 31452372.531 32261458.252 32734926.241 32923443.353 32877676.441 32613206.921 32145616.214 
31458283.976 30534589.868 29310276.928 27721088.195 25697882.452 23171518.482 19706533.602 14867465.131 9627487.7906 
4959776.3031 1057228.2732 -1887258.6942 -10606215.52 3242295.9685 3258950.255 -1996659.4836 -3964940.0706 -3694798.0323 
-2235139.8951 1622001.4372 9084593.0608 16947913.863 22007242.731 25284049.56 27799804.245 29641118.345 30894603.421 
31689341.002 32154412.619 32339586.612 32294631.319 32034851.842 31575553.279 30900410.033 29993096.503 28790495.246 
27229488.819 25242162.139 22760600.124 19357062.485 14603808.937 9456756.145 4871820.7749 1038479.6306 -1853790.4844 

P2 1 1089 double
-235592069.7 -161990927.98 -111062699.76 -75236347.838 -46940834.998 -25921692.801 -11924452.804 -4523346.9722 -3292607.2716 
-4566490.8225 -4679254.7451 -4280180.3812 -4018549.0727 -3800369.6313 -3531650.8685 -3236442.6963 -2938795.0268 -2639406.434 
-2338975.492 -2040119.0396 -1745453.9153 -1456036.1571 -1172921.8028 -895511.7579 -623206.92793 -374179.84035 -166603.02263 
125509.21914 628142.57886 503573.95085 -1085919.7706 -7188429.8691 -20852047.629 -239845433.23 -164915501.4 -113067818.34 
-76594659.849 -47788301.705 -26389681.316 -12139736.081 -4605011.1792 -3352051.786 -4648933.945 -4763733.6997 -4357454.4737 
-4091099.6909 -3868981.2522 -3595411.0587 -3294873.2178 -2991851.8371 -2687058.1025 -2381203.2003 -2076951.2132 -1776966.2243 
-1482323.3371 -1194097.655 -911679.26747 -634458.26408 -380935.25788 -169610.86193 127775.15497 639483.02406 512665.44237 
-1105524.893 -7318209.3026 -21228509.107 -243965811.71 -167748635.53 -115010245.18 -77910503.072 -48609271.64 -26843037.768 
-12348288.341 -4684122.0811 -3409637.7131 -4728799.4101 -4845571.3453 -4432312.5236 -4161381.9502 -3935447.6707 -3657177.7308 
-3351476.858 -3043249.7798 -2733219.9 -2422110.6224 -2112631.797 -1807493.2737 -1507788.6257 -1214611.426 -927341.28622 
-645357.818 -387479.46214 -172524.65944 129970.24328 650468.8992 521472.67929 -1124517.0455 -7443931.0715 -21593200.195 
-247931356.69 -170475307.58 -116879680.48 -79176900.204 -49399391.583 -27279358.222 -12549003.73 -4760260.1952 -3465059.707 
-4805663.7323 -4924333.7382 -4504357.5965 -4229023.179 -3999416.4483 -3716623.3666 -3405953.4755 -3092716.3169 -2777647.053 
-2461480.8461 -2146971.5937 -1836873.193 -1532296.9925 -1234354.3408 -942414.76533 -655847.79372 -393777.7513 -175328.9634 
132082.84603 661041.95308 529948.96269 -1142795.5202 -7564928.5312 -21944187.106 -251719859.68 -173080247.2 -118665654.73 
-80386758.964 -50154236.576 -27696199.125 -12740758.17 -4832999.1199 -3518007.3837 -4879096.4432 -4999579.7802 -4573186.2134 
-4293644.5618 -4060529.3365 -3773415.0488 -3457997.9816 -3139974.4178 -2820090.7533 -2499093.3841 -2179778.2884 -1864941.4441 
-1555711.1818 -1253215.8319 -956815.28803 -665869.44377 -399794.85282 -178008.06885 134101.13175 671142.97265 538046.82219 
-1160257.9512 -7680524.0524 -22279504.186 -255308997.42 -175548105.11 -120357644.31 -81532950.412 -50869358.79 -28091104.293 
-12922421.77 -4901910.2481 -3568168.7539 -4948664.8484 -5070866.0923 -4638392.8095 -4354865.3242 -4118426.2347 -3827218.1392 
-3507303.7101 -3184745.6198 -2860300.9066 -2534726.6091 -2210858.5716 -1891532.6385 -1577893.2287 -1271084.7607 -970458.00127 
-675363.71711 -405495.31204 -180546.18992 136013.20747 680712.43838 545718.54169 -1176801.4437 -7790036.5032 -22597175.622 
-258676603.25 -177863639.73 -121945199.43 -82608395.624 -51540341.602 -28461634.777 -13092872.57 -4966567.9828 -3615234.0196 
-5013939.291 -5137752.4077 -4699574.6667 -4412307.3649 -4172749.5695 -3877700.3479 -3553566.1471 -3226753.4143 -2898029.1735 
-2568160.4488 -2240020.4902 -1916482.5479 -1598706.1358 -1287850.7678 -983258.64705 -684271.97665 -410843.92261 -182927.65096 
137807.26426 689691.24903 552916.74046 -1192323.8243 -7892789.5304 -22895239.463 -261800960.41 -180011918.81 -123418082.37 
-83606159.353 -52162858.031 -28805401.13 -13251011.38 -5026555.3648 -3658899.6706 -5074498.8349 -5199807.3957 -4756337.2404 
-4465600.2562 -4223149.0252 -3924536.1293 -3596486.959 -3265726.9048 -2933032.2549 -2599179.2978 -2267075.9872 -1939630.2771 
-1618015.6864 -1303405.7338 -995134.67742 -692536.77534 -415806.19263 -185137.09437 139471.73297 698021.50295 559594.99954 
-1206724.9933 -7988120.508 -23171773.577 -264661111.51 -181978532.25 -124766413.42 -84519548.855 -52732732.395 -29120097.454 
-13395777.445 -5081470.014 -3698872.8088 -5129937.262 -5256614.8072 -4808299.7817 -4514386.523 -4269286.5349 -3967411.3209 
-3635778.244 -3301404.667 -2965075.3591 -2627575.0894 -2291843.5812 -1960820.5572 -1635692.357 -1317645.32 -1006006.431 
-700102.67505 -420348.8365 -187159.69984 140995.44871 705647.32289 565708.52283 -1219908.3513 -8075389.9802 -23424923.044 
-267237177.33 -183749811.28 -125980821.13 -85342215.698 -53246003.834 -29403536.48 -13526164.581 -5130930.2508 -3734875.6041 
-5179869.2523 -5307779.8071 -4855101.1295 -4558327.0807 -4310841.4239 -4006027.9225 -3671166.9114 -3333538.7258 -2993935.7732 
-2653150.4614 -2314151.1271 -1979906.107 -1651613.2875 -1330470.5554 -1015798.3448 -706917.08976 -424440.28108 -188981.4095 
142367.82093 712515.70616 571214.81872 -1231782.2689 -8153991.3886 -23652928.373 -269510676.98 -185313048.61 -127052593.23 
-86068258.007 -53698990.099 -29653684.796 -13641237.381 -5174581.2436 -3766649.7698 -5223936.5899 -5352935.3338 -4896405.5273 
-4597106.6962 -4347515.5744 -4040108.8956 -3702399.0804 -3361898.549 -3019406.4506 -2675721.9341 -2333838.5891 -1996750.0053 
-1665664.26 -1341789.4309 -1024440.1708 -712931.13232 -428051.17401 -190589.15426 143579.00415 718577.37848 576074.38465 
-1242261.5614 -8223360.8407 -23854153.834 -271464840.66 -186656713.49 -127973824.13 -86692320.348 -54088349.873 -29868697.257 
-13740147.046 -5212101.014 -3793960.9333 -5261814.2253 -5391748.3112 -4931908.3058 -4630439.3235 -4379038.4704 -4069402.8522 
-3729244.3761 -3386274.949 -3041299.5143 -2695123.0157 -2350760.7484 -2011228.0081 -1677741.6317 -1351518.4562 -1031868.1651 
-718100.44191 -431154.88058 -191971.07504 144620.06448 723787.62778 580251.37553 -1251268.9316 -8282986.6532 -24027115.149 