# vtk DataFile Version 5.1
vtk output
ASCII
DATASET UNSTRUCTURED_GRID
POINTS 60 float
0 0 0 0 0 0.167373 0 0 0.440718 
0 0 0.756819 0 0 1 -5.783e-20 0.3333 0 
-5.783e-20 0.3333 0.167373 -5.783e-20 0.3333 0.440718 -5.783e-20 0.3333 0.756819 
-5.783e-20 0.3333 1 -2.891e-20 0.6667 0 -2.891e-20 0.6667 0.167373 
-2.891e-20 0.6667 0.440718 -2.891e-20 0.6667 0.756819 -2.891e-20 0.6667 1 
0 1 0 0 1 0.167373 0 1 0.440718 
0 1 0.756819 0 1 1 0.5 0 0 
0.5 0 0.167373 0.5 0 0.440718 0.5 0 0.756819 
0.5 0 1 0.5 0.3333 0 0.5 0.3333 0.167373 
0.5 0.3333 0.440718 0.5 0.3333 0.756819 0.5 0.3333 1 
0.5 0.6667 0 0.5 0.6667 0.167373 0.5 0.6667 0.440718 
0.5 0.6667 0.756819 0.5 0.6667 1 0.5 1 0 
0.5 1 0.167373 0.5 1 0.440718 0.5 1 0.756819 
0.5 1 1 1 0 0 1 0 0.167373 
1 0 0.440718 1 0 0.756819 1 0 1 
1 0.3333 0 1 0.3333 0.167373 1 0.3333 0.440718 
1 0.3333 0.756819 1 0.3333 1 1 0.6667 0 
1 0.6667 0.167373 1 0.6667 0.440718 1 0.6667 0.756819 
1 0.6667 1 1 1 0 1 1 0.167373 
1 1 0.440718 1 1 0.756819 1 1 1 

CELLS 25 192
OFFSETS vtktypeint64
0 8 16 24 32 40 48 56 64 
72 80 88 96 104 112 120 128 136 
144 152 160 168 176 184 192 
CONNECTIVITY vtktypeint64
0 20 25 5 1 21 26 6 1 
21 26 6 2 22 27 7 2 22 
27 7 3 23 28 8 3 23 28 
8 4 24 29 9 5 25 30 10 
6 26 31 11 6 26 31 11 7 
27 32 12 7 27 32 12 8 28 
33 13 8 28 33 13 9 29 34 
14 10 30 35 15 11 31 36 16 
11 31 36 16 12 32 37 17 12 
32 37 17 13 33 38 18 13 33 
38 18 14 34 39 19 20 40 45 
25 21 41 46 26 21 41 46 26 
22 42 47 27 22 42 47 27 23 
43 48 28 23 43 48 28 24 44 
49 29 25 45 50 30 26 46 51 
31 26 46 51 31 27 47 52 32 
27 47 52 32 28 48 53 33 28 
48 53 33 29 49 54 34 30 50 
55 35 31 51 56 36 31 51 56 
36 32 52 57 37 32 52 57 37 
33 53 58 38 33 53 58 38 34 
54 59 39 
CELL_TYPES 24
12
12
12
12
12
12
12
12
12
12
12
12
12
12
12
12
12
12
12
12
12
12
12
12

POINT_DATA 60
FIELD FieldData 13
ps 1 60 float
100000 99997.9 99994.5 99990.5 99987.4 100000 99997.9 99994.5 99990.5 
99987.4 100000 99997.9 99994.5 99990.5 99987.4 100000 99997.9 99994.5 
99990.5 99987.4 100000 99997.9 99994.5 99990.5 99987.4 100000 99997.9 
99994.5 99990.5 99987.4 100000 99997.9 99994.5 99990.5 99987.4 100000 
99997.9 99994.5 99990.5 99987.4 100000 99997.9 99994.5 99990.5 99987.4 
100000 99997.9 99994.5 99990.5 99987.4 100000 99997.9 99994.5 99990.5 
99987.4 100000 99997.9 99994.5 99990.5 99987.4 
pt 1 60 float
272.3 272.3 272.3 272.301 272.301 272.3 272.3 272.3 272.301 
272.301 272.3 272.3 272.3 272.301 272.301 272.3 272.3 272.3 
272.301 272.301 272.3 272.3 272.3 272.301 272.301 272.3 272.3 
272.3 272.301 272.301 272.3 272.3 272.3 272.301 272.301 272.3 
272.3 272.3 272.301 272.301 272.3 272.3 272.3 272.301 272.301 
272.3 272.3 272.3 272.301 272.301 272.3 272.3 272.3 272.301 
272.301 272.3 272.3 272.3 272.301 272.301 
pts 1 60 float
272.3 272.3 272.3 272.301 272.301 272.3 272.3 272.3 272.301 
272.301 272.3 272.3 272.3 272.301 272.301 272.3 272.3 272.3 
272.301 272.301 272.3 272.3 272.3 272.301 272.301 272.3 272.3 
272.3 272.301 272.301 272.3 272.3 272.3 272.301 272.301 272.3 
272.3 272.3 272.301 272.301 272.3 272.3 272.3 272.301 272.301 
272.3 272.3 272.3 272.301 272.301 272.3 272.3 272.3 272.301 
272.301 272.3 272.3 272.3 272.301 272.301 
rho 1 60 float
1.27959 1.27957 1.27954 1.2795 1.27947 1.27959 1.27957 1.27954 1.2795 
1.27947 1.27959 1.27957 1.27954 1.2795 1.27947 1.27959 1.27957 1.27954 
1.2795 1.27947 1.27959 1.27957 1.27954 1.2795 1.27947 1.27959 1.27957 
1.27954 1.2795 1.27947 1.27959 1.27957 1.27954 1.2795 1.27947 1.27959 
1.27957 1.27954 1.2795 1.27947 1.27959 1.27957 1.27954 1.2795 1.27947 
1.27959 1.27957 1.27954 1.2795 1.27947 1.27959 1.27957 1.27954 1.2795 
1.27947 1.27959 1.27957 1.27954 1.2795 1.27947 
rhos 1 60 float
1.27959 1.27957 1.27954 1.2795 1.27947 1.27959 1.27957 1.27954 1.2795 
1.27947 1.27959 1.27957 1.27954 1.2795 1.27947 1.27959 1.27957 1.27954 
1.2795 1.27947 1.27959 1.27957 1.27954 1.2795 1.27947 1.27959 1.27957 
1.27954 1.2795 1.27947 1.27959 1.27957 1.27954 1.2795 1.27947 1.27959 
1.27957 1.27954 1.2795 1.27947 1.27959 1.27957 1.27954 1.2795 1.27947 
1.27959 1.27957 1.27954 1.2795 1.27947 1.27959 1.27957 1.27954 1.2795 
1.27947 1.27959 1.27957 1.27954 1.2795 1.27947 
strat 1 60 float
0 0 0 0 0 0 0 0 0 
0 0 0 0 0 0 0 0 0 
0 0 0 0 0 0 0 0 0 
0 0 0 0 0 0 0 0 0 
0 0 0 0 0 0 0 0 0 
0 0 0 0 0 0 0 0 0 
0 0 0 0 0 0 
td 1 60 float
2.50519 2.82139 2.17862 1.70112 1.56245 2.50519 2.82139 2.17862 1.70112 
1.56245 2.50519 2.82139 2.17862 1.70112 1.56245 2.50519 2.82139 2.17862 
1.70112 1.56245 2.50519 2.82139 2.17862 1.70112 1.56245 2.50519 2.82139 
2.17862 1.70112 1.56245 2.50519 2.82139 2.17862 1.70112 1.56245 2.50519 
2.82139 2.17862 1.70112 1.56245 2.50519 2.82139 2.17862 1.70112 1.56245 
2.50519 2.82139 2.17862 1.70112 1.56245 2.50519 2.82139 2.17862 1.70112 
1.56245 2.50519 2.82139 2.17862 1.70112 1.56245 
tk 1 60 float
1.54471 2.2466 2.56945 2.7601 2.99313 1.54471 2.2466 2.56945 2.7601 
2.99313 1.54471 2.2466 2.56945 2.7601 2.99313 1.54471 2.2466 2.56945 
2.7601 2.99313 1.54471 2.2466 2.56945 2.7601 2.99313 1.54471 2.2466 
2.56945 2.7601 2.99313 1.54471 2.2466 2.56945 2.7601 2.99313 1.54471 
2.2466 2.56945 2.7601 2.99313 1.54471 2.2466 2.56945 2.7601 2.99313 
1.54471 2.2466 2.56945 2.7601 2.99313 1.54471 2.2466 2.56945 2.7601 
2.99313 1.54471 2.2466 2.56945 2.7601 2.99313 
u 3 60 float
0 0 0 0.1674 0 0 0.4407 0 0 
0.7568 0 0 1 0 0 0 0 0 
0.1674 0 0 0.4407 0 0 0.7568 0 0 
1 0 0 0 0 0 0.1674 0 0 
0.4407 0 0 0.7568 0 0 1 0 0 
0 0 0 0.1674 0 0 0.4407 0 0 
0.7568 0 0 1 0 0 0 0 0 
0.1674 0 0 0.4407 0 0 0.7568 0 0 
1 0 0 0 0 0 0.166498 9.74035e-05 -0.000121153 
0.438706 -0.000293481 -0.000290511 0.755464 0.000110091 -7.62963e-05 1 0 0 
0 0 0 0.166463 -0.000176931 5.43787e-05 0.43865 0.000230903 -0.000258418 
0.75552 -8.64233e-05 -2.91416e-05 1 0 0 0 0 0 
0.1674 0 0 0.4407 0 0 0.7568 0 0 
1 0 0 0 0 0 0.1674 0 0 
0.4407 0 0 0.7568 0 0 1 0 0 
0 0 0 0.1647 -0.00092412 0.000181338 0.435322 0.00132466 -0.000262968 
0.7531 -0.000576869 -0.000112832 1 0 0 0 0 0 
0.16478 0.000863324 4.31399e-05 0.435416 -0.00143529 -8.02197e-05 0.753007 0.00059166 -0.000169041 
1 0 0 0 0 0 0.1674 0 0 
0.4407 0 0 0.7568 0 0 1 0 0 

u_x 1 60 float
0 0.1674 0.4407 0.7568 1 0 0.1674 0.4407 0.7568 
1 0 0.1674 0.4407 0.7568 1 0 0.1674 0.4407 
0.7568 1 0 0.1674 0.4407 0.7568 1 0 0.166498 
0.438706 0.755464 1 0 0.166463 0.43865 0.75552 1 0 
0.1674 0.4407 0.7568 1 0 0.1674 0.4407 0.7568 1 
0 0.1647 0.435322 0.7531 1 0 0.16478 0.435416 0.753007 
1 0 0.1674 0.4407 0.7568 1 
u_y 1 60 float
0 0 0 0 0 0 0 0 0 
0 0 0 0 0 0 0 0 0 
0 0 0 0 0 0 0 0 9.74035e-05 
-0.000293481 0.000110091 0 0 -0.000176931 0.000230903 -8.64233e-05 0 0 
0 0 0 0 0 0 0 0 0 
0 -0.00092412 0.00132466 -0.000576869 0 0 0.000863324 -0.00143529 0.00059166 
0 0 0 0 0 0 
u_z 1 60 float
0 0 0 0 0 0 0 0 0 
0 0 0 0 0 0 0 0 0 
0 0 0 0 0 0 0 0 -0.000121153 
-0.000290511 -7.62963e-05 0 0 5.43787e-05 -0.000258418 -2.91416e-05 0 0 
0 0 0 0 0 0 0 0 0 
0 0.000181338 -0.000262968 -0.000112832 0 0 4.31399e-05 -8.02197e-05 -0.000169041 
0 0 0 0 0 0 
vtef 1 60 float
1 1 1 1 1 1 1 1 1 
1 1 1 1 1 1 1 1 1 
1 1 1 1 1 1 1 1 1 
1 1 1 1 1 1 1 1 1 
1 1 1 1 1 1 1 1 1 
1 1 1 1 1 1 1 1 1 
1 1 1 1 1 1 
