# vtk DataFile Version 5.1
vtk output
ASCII
DATASET UNSTRUCTURED_GRID
POINTS 60 float
0 0 0 0 0 0.167373 0 0 0.440718 
0 0 0.756819 0 0 1 0.5 0 0 
0.5 0 0.167373 0.5 0 0.440718 0.5 0 0.756819 
0.5 0 1 1 0 0 1 0 0.167373 
1 0 0.440718 1 0 0.756819 1 0 1 
-5.783e-20 0.3333 0 -5.783e-20 0.3333 0.167373 -5.783e-20 0.3333 0.440718 
-5.783e-20 0.3333 0.756819 -5.783e-20 0.3333 1 0.5 0.3333 0 
0.5 0.3333 0.167373 0.5 0.3333 0.440718 0.5 0.3333 0.756819 
0.5 0.3333 1 1 0.3333 0 1 0.3333 0.167373 
1 0.3333 0.440718 1 0.3333 0.756819 1 0.3333 1 
-2.891e-20 0.6667 0 -2.891e-20 0.6667 0.167373 -2.891e-20 0.6667 0.440718 
-2.891e-20 0.6667 0.756819 -2.891e-20 0.6667 1 0.5 0.6667 0 
0.5 0.6667 0.167373 0.5 0.6667 0.440718 0.5 0.6667 0.756819 
0.5 0.6667 1 1 0.6667 0 1 0.6667 0.167373 
1 0.6667 0.440718 1 0.6667 0.756819 1 0.6667 1 
0 1 0 0 1 0.167373 0 1 0.440718 
0 1 0.756819 0 1 1 0.5 1 0 
0.5 1 0.167373 0.5 1 0.440718 0.5 1 0.756819 
0.5 1 1 1 1 0 1 1 0.167373 
1 1 0.440718 1 1 0.756819 1 1 1 

CELLS 25 192
OFFSETS vtktypeint64
0 8 16 24 32 40 48 56 64 
72 80 88 96 104 112 120 128 136 
144 152 160 168 176 184 192 
CONNECTIVITY vtktypeint64
0 5 20 15 1 6 21 16 1 
6 21 16 2 7 22 17 2 7 
22 17 3 8 23 18 3 8 23 
18 4 9 24 19 5 10 25 20 
6 11 26 21 6 11 26 21 7 
12 27 22 7 12 27 22 8 13 
28 23 8 13 28 23 9 14 29 
24 15 20 35 30 16 21 36 31 
16 21 36 31 17 22 37 32 17 
22 37 32 18 23 38 33 18 23 
38 33 19 24 39 34 20 25 40 
35 21 26 41 36 21 26 41 36 
22 27 42 37 22 27 42 37 23 
28 43 38 23 28 43 38 24 29 
44 39 30 35 50 45 31 36 51 
46 31 36 51 46 32 37 52 47 
32 37 52 47 33 38 53 48 33 
38 53 48 34 39 54 49 35 40 
55 50 36 41 56 51 36 41 56 
51 37 42 57 52 37 42 57 52 
38 43 58 53 38 43 58 53 39 
44 59 54 
CELL_TYPES 24
12
12
12
12
12
12
12
12
12
12
12
12
12
12
12
12
12
12
12
12
12
12
12
12

POINT_DATA 60
FIELD FieldData 9
u 3 60 float
0 0 0 0.1674 0 0 0.4407 0 0 
0.7568 0 0 1 0 0 0 0 0 
0.1674 0 0 0.4407 0 0 0.7568 0 0 
1 0 0 0 0 0 0.1674 0 0 
0.4407 0 0 0.7568 0 0 1 0 0 
0 0 0 0.1674 0 0 0.4407 0 0 
0.7568 0 0 1 0 0 0 0 0 
0.166498 9.74035e-05 -0.000121153 0.438706 -0.000293481 -0.000290511 0.755464 0.000110091 -7.62963e-05 
1 0 0 0 0 0 0.1647 -0.00092412 0.000181338 
0.435322 0.00132466 -0.000262968 0.7531 -0.000576869 -0.000112832 1 0 0 
0 0 0 0.1674 0 0 0.4407 0 0 
0.7568 0 0 1 0 0 0 0 0 
0.166463 -0.000176931 5.43787e-05 0.43865 0.000230903 -0.000258418 0.75552 -8.64233e-05 -2.91416e-05 
1 0 0 0 0 0 0.16478 0.000863324 4.31399e-05 
0.435416 -0.00143529 -8.02197e-05 0.753007 0.00059166 -0.000169041 1 0 0 
0 0 0 0.1674 0 0 0.4407 0 0 
0.7568 0 0 1 0 0 0 0 0 
0.1674 0 0 0.4407 0 0 0.7568 0 0 
1 0 0 0 0 0 0.1674 0 0 
0.4407 0 0 0.7568 0 0 1 0 0 

ps 1 60 float
100000 99997.9 99994.5 99990.5 99987.4 100000 99997.9 99994.5 99990.5 
99987.4 100000 99997.9 99994.5 99990.5 99987.4 100000 99997.9 99994.5 
99990.5 99987.4 100000 99997.9 99994.5 99990.5 99987.4 100000 99997.9 
99994.5 99990.5 99987.4 100000 99997.9 99994.5 99990.5 99987.4 100000 
99997.9 99994.5 99990.5 99987.4 100000 99997.9 99994.5 99990.5 99987.4 
100000 99997.9 99994.5 99990.5 99987.4 100000 99997.9 99994.5 99990.5 
99987.4 100000 99997.9 99994.5 99990.5 99987.4 
tk 1 60 float
1.54471 2.2466 2.56945 2.7601 2.99313 1.54471 2.2466 2.56945 2.7601 
2.99313 1.54471 2.2466 2.56945 2.7601 2.99313 1.54471 2.2466 2.56945 
2.7601 2.99313 1.54471 2.2466 2.56945 2.7601 2.99313 1.54471 2.2466 
2.56945 2.7601 2.99313 1.54471 2.2466 2.56945 2.7601 2.99313 1.54471 
2.2466 2.56945 2.7601 2.99313 1.54471 2.2466 2.56945 2.7601 2.99313 
1.54471 2.2466 2.56945 2.7601 2.99313 1.54471 2.2466 2.56945 2.7601 
2.99313 1.54471 2.2466 2.56945 2.7601 2.99313 
td 1 60 float
2.50519 2.82139 2.17862 1.70112 1.56245 2.50519 2.82139 2.17862 1.70112 
1.56245 2.50519 2.82139 2.17862 1.70112 1.56245 2.50519 2.82139 2.17862 
1.70112 1.56245 2.50519 2.82139 2.17862 1.70112 1.56245 2.50519 2.82139 
2.17862 1.70112 1.56245 2.50519 2.82139 2.17862 1.70112 1.56245 2.50519 
2.82139 2.17862 1.70112 1.56245 2.50519 2.82139 2.17862 1.70112 1.56245 
2.50519 2.82139 2.17862 1.70112 1.56245 2.50519 2.82139 2.17862 1.70112 
1.56245 2.50519 2.82139 2.17862 1.70112 1.56245 
vtef 1 60 float
1 1 1 1 1 1 1 1 1 
1 1 1 1 1 1 1 1 1 
1 1 1 1 1 1 1 1 1 
1 1 1 1 1 1 1 1 1 
1 1 1 1 1 1 1 1 1 
1 1 1 1 1 1 1 1 1 
1 1 1 1 1 1 
pt 1 60 float
272.3 272.3 272.3 272.301 272.301 272.3 272.3 272.3 272.301 
272.301 272.3 272.3 272.3 272.301 272.301 272.3 272.3 272.3 
272.301 272.301 272.3 272.3 272.3 272.301 272.301 272.3 272.3 
272.3 272.301 272.301 272.3 272.3 272.3 272.301 272.301 272.3 
272.3 272.3 272.301 272.301 272.3 272.3 272.3 272.301 272.301 
272.3 272.3 272.3 272.301 272.301 272.3 272.3 272.3 272.301 
272.301 272.3 272.3 272.3 272.301 272.301 
pts 1 60 float
272.3 272.3 272.3 272.301 272.301 272.3 272.3 272.3 272.301 
272.301 272.3 272.3 272.3 272.301 272.301 272.3 272.3 272.3 
272.301 272.301 272.3 272.3 272.3 272.301 272.301 272.3 272.3 
272.3 272.301 272.301 272.3 272.3 272.3 272.301 272.301 272.3 
272.3 272.3 272.301 272.301 272.3 272.3 272.3 272.301 272.301 
272.3 272.3 272.3 272.301 272.301 272.3 272.3 272.3 272.301 
272.301 272.3 272.3 272.3 272.301 272.301 
rho 1 60 float
1.27959 1.27957 1.27954 1.2795 1.27947 1.27959 1.27957 1.27954 1.2795 
1.27947 1.27959 1.27957 1.27954 1.2795 1.27947 1.27959 1.27957 1.27954 
1.2795 1.27947 1.27959 1.27957 1.27954 1.2795 1.27947 1.27959 1.27957 
1.27954 1.2795 1.27947 1.27959 1.27957 1.27954 1.2795 1.27947 1.27959 
1.27957 1.27954 1.2795 1.27947 1.27959 1.27957 1.27954 1.2795 1.27947 
1.27959 1.27957 1.27954 1.2795 1.27947 1.27959 1.27957 1.27954 1.2795 
1.27947 1.27959 1.27957 1.27954 1.2795 1.27947 
rhos 1 60 float
1.27959 1.27957 1.27954 1.2795 1.27947 1.27959 1.27957 1.27954 1.2795 
1.27947 1.27959 1.27957 1.27954 1.2795 1.27947 1.27959 1.27957 1.27954 
1.2795 1.27947 1.27959 1.27957 1.27954 1.2795 1.27947 1.27959 1.27957 
1.27954 1.2795 1.27947 1.27959 1.27957 1.27954 1.2795 1.27947 1.27959 
1.27957 1.27954 1.2795 1.27947 1.27959 1.27957 1.27954 1.2795 1.27947 
1.27959 1.27957 1.27954 1.2795 1.27947 1.27959 1.27957 1.27954 1.2795 
1.27947 1.27959 1.27957 1.27954 1.2795 1.27947 
