# vtk DataFile Version 5.1
vtk output
ASCII
DATASET UNSTRUCTURED_GRID
POINTS 405 double
10 -10 0 10.001302621 -7.5002674223 0 10.002394919 -5.0003336973 0 
10.003125649 -2.5002241152 0 10.003372589 -2.202466371e-05 0 10.003102248 2.5001840639 0 
10.002356536 5.0003034049 0 10.001268726 7.5002498561 0 10 10 0 
12.5 -10 0 12.50104977 -7.5002152233 0 12.501896114 -5.0002640046 0 
12.502451014 -2.5001744069 0 12.502638339 -6.200009595e-06 0 12.502432279 2.5001624825 0 
12.501866638 5.0002534537 0 12.501024995 7.5002076453 0 12.5 10 0 
15 -10 0 15.000828877 -7.5001730193 0 15.001483415 -5.0002078957 0 
15.001904596 -2.5001340328 0 15.002045751 3.1643312248e-07 0 15.001891277 2.5001339719 0 
15.001462872 5.0002062147 0 15.000812123 7.500170382 0 15 10 0 
17.5 -10 0 17.500639944 -7.5001415614 0 17.501139415 -5.0001677573 0 
17.501456769 -2.5001063681 0 17.50156272 2.469627025e-06 0 17.501447955 2.5001103645 0 
17.501126013 5.0001694491 0 17.500629267 7.5001411402 0 17.5 10 0 
20 -10 0 20.000479475 -7.5001186706 0 20.000850025 -5.0001398655 0 
20.001082913 -2.5000880359 0 20.001160478 2.7199541275e-06 0 20.00107743 2.5000926304 0 
20.000841788 5.0001423666 0 20.000473046 7.5001190755 0 20 10 0 
22.5 -10 0 22.500342536 -7.5001021132 0 22.500602364 -5.0001201832 0 
22.500763166 -2.5000755372 0 22.500816419 2.2593151175e-06 0 22.500759987 2.5000794057 0 
22.50059764 5.0001224361 0 22.500338924 7.5001026922 0 22.5 10 0 
25 -10 0 25.000223893 -7.5000880789 0 25.000384911 -5.0001031269 0 
25.000481487 -2.5000642043 0 25.000513343 1.600759885e-06 0 25.000479848 2.5000669517 0 
25.0003825 5.0001047501 0 25.000222092 7.5000885384 0 25 10 0 
27.5 -10 0 27.500116071 -7.5000683546 0 27.500185806 -5.0000745308 0 
27.50022711 -2.5000450375 0 27.50024059 8.8658534753e-07 0 27.500226491 2.5000465454 0 
27.500184901 5.0000753858 0 27.500115405 7.5000685556 0 27.5 10 0 
30 -10 0 30 -7.5 0 30 -5 0 
30 -2.5 0 30 0 0 30 2.5 0 
30 5 0 30 7.5 0 30 10 0 
0.35852893137 -0.35366073872 0 0.41696025461 -0.2834048692 0 0.46383609521 -0.19867937294 0 
0.49434735613 -0.10255129371 0 0.50495339061 -0.00010734872892 0 0.49434735614 0.10233659625 0 
0.46383609522 0.19846467548 0 0.41696025463 0.28319017175 0 0.3585289314 0.35344604128 0 
1.573986198 -1.5691394876 0 1.6977951705 -1.2467021391 0 1.7956205088 -0.86798251233 0 
1.8585886982 -0.44588822394 0 1.8803486615 -0.00010692438329 0 1.8585886021 0.44567437057 0 
1.7956203274 0.86776864816 0 1.6977949369 1.2464882636 0 1.5739859529 1.5689256053 0 
2.7866877014 -2.7818558087 0 2.9539179789 -2.1916381652 0 3.0840820991 -1.5157733601 0 
3.1669610559 -0.77533183202 0 3.1954393328 -0.00010651564476 0 3.1669608627 0.77511878726 0 
3.0840817929 1.515560257 0 2.9539176213 2.1914249406 0 2.7866872668 2.78164239 0 
3.9964850977 -3.9918615008 0 4.1859047274 -3.1186939948 0 4.3311303866 -2.1430088946 0 
4.422613715 -1.0916637955 0 4.4538738362 -0.00010621864475 0 4.4226133173 1.0914514298 0 
4.3311293105 2.1427972203 0 4.1859020659 3.1184848368 0 3.9964787182 3.9916589535 0 
5.2026174613 -5.1992307429 0 5.3938651994 -4.0283744366 0 5.5382874466 -2.7506014802 0 
5.6283254838 -1.3956120817 0 5.6589294256 -9.8534534871e-05 0 5.6283217083 1.3954207524 0 
5.5382782212 2.7504244868 0 5.3938466686 4.0282160961 0 5.2025854163 5.1990943967 0 
6.4056951287 -6.403722404 0 6.5784935655 -4.9210331365 0 6.7072120851 -3.3394194058 0 
6.7866537401 -1.6878634913 0 6.8135152163 -7.4058897707e-05 0 6.786642095 1.6877242691 0 
6.7071875968 3.33930259 0 6.5784541774 4.9209431596 0 6.4056462665 6.4036574561 0 
7.6064736791 -7.6052648844 0 7.7409433287 -5.7969393696 0 7.8398318424 -3.9101707649 0 
7.900293654 -1.9690130047 0 7.920628613 -4.8604119922e-05 0 7.9002753233 1.9689221309 0 
7.8397966107 3.9100963486 0 7.7408973982 5.7968847378 0 7.6064337522 7.6052302271 0 
8.8045603907 -8.8040273738 0 8.8817277213 -6.6565356183 0 8.9377534171 -4.4635540858 0 
8.971734863 -2.2396155722 0 8.9831104045 -3.3251225845e-05 0 8.9717131572 2.239554522 0 
8.937714715 4.4635062579 0 8.8816856144 6.6565039178 0 8.8045372172 8.804014656 0 
10 -10 0 10.001302621 -7.5002674223 0 10.002394919 -5.0003336973 0 
10.003125649 -2.5002241152 0 10.003372589 -2.202466371e-05 0 10.003102248 2.5001840639 0 
10.002356536 5.0003034049 0 10.001268726 7.5002498561 0 10 10 0 
0.3585289314 0.35344604128 0 0.28827306188 0.41187736451 0 0.20354756562 0.45875320511 0 
0.10741948639 0.48926446604 0 0.0049755414082 0.49987050051 0 -0.09746840357 0.48926446604 0 
-0.1935964828 0.45875320513 0 -0.27832197907 0.41187736454 0 -0.3485778486 0.35344604131 0 
1.5739859529 1.5689256053 0 1.2515486661 1.6927314157 0 0.87282973314 1.7905526864 0 
0.4507369359 1.8535167874 0 0.0049576641859 1.8752737106 0 -0.44082139087 1.853512118 0 
-0.86291370162 1.7905439585 0 -1.2416321034 1.6927201227 0 -1.5640689055 1.568913321 0 
2.7866872668 2.78164239 0 2.1964673964 2.9488659497 0 1.520601887 3.0790248754 0 
0.78016137964 3.1618981183 0 0.0049390513488 3.1903707031 0 -0.77028250856 3.1618890336 0 
-1.5107199246 3.0790096627 0 -2.1865794735 2.9488467282 0 -2.7767907384 2.7816189264 0 
3.9964787182 3.9916589535 0 3.1234289248 4.1809329614 0 2.1477984275 4.3261001298 0 
1.0964755044 4.4175589455 0 0.0049263023778 4.4488072613 0 -1.0866255869 4.4175383649 0 
-2.1379758547 4.3260515243 0 -3.1137016349 4.1808340454 0 -3.9869897717 3.99145295 0 
5.2025854163 5.1990943967 0 4.0320489114 5.3896394088 0 2.7546011912 5.5336648616 0 
1.399890997 5.6234685902 0 0.0045088368762 5.6539428205 0 -1.3911282486 5.6233254374 0 
-2.7464166561 5.533387369 0 -4.0245066158 5.3891255157 0 -5.1957360278 5.1982088425 0 
6.4056462665 6.4036574561 0 4.9231697838 6.5754345794 0 3.3419378831 6.7033696554 0 
1.6907592405 6.7823130615 0 0.0031558692531 6.8088792728 0 -1.6847674283 6.7819698287 0 
-3.3366955888 6.7027591175 0 -4.9187188106 6.5744853169 0 -6.4018612708 6.4024350284 0 
7.6064337522 7.6052302271 0 5.7980946291 7.7386821101 0 3.9114796609 7.8366475324 0 
1.9705352917 7.8964762383 0 0.0017070703357 7.9164664081 0 -1.9672389677 7.8960989867 0 
-3.9085095025 7.8359854385 0 -5.7955120866 7.7378020257 0 -7.6042427114 7.6043740891 0 
8.8045372172 8.804014656 0 6.6569197752 8.8800063688 0 4.4639683567 8.9350241053 0 
2.2401798671 8.9682961301 0 0.00075887922932 8.9793521491 0 -2.2387210985 8.9680635991 0 
-4.4626562496 8.934619168 0 -6.6557732018 8.8795175436 0 -8.803635859 8.8036123965 0 
10 10 0 7.5 10 0 5 10 0 
2.5 10 0 0 10 0 -2.5 10 0 
-5 10 0 -7.5 10 0 -10 10 0 
-0.3485778486 0.35344604131 0 -0.40700917183 0.28319017178 0 -0.45388501243 0.19846467552 0 
-0.48439627336 0.10233659629 0 -0.49500230783 -0.00010734868894 0 -0.48439627336 -0.10255129367 0 
-0.45388501245 -0.1986793729 0 -0.40700917186 -0.28340486917 0 -0.34857784863 -0.35366073869 0 
-1.5640689055 1.568913321 0 -1.6878726305 1.2464770017 0 -1.7856920233 0.86775974492 0 
-1.8486555956 0.44566953842 0 -1.8704139698 -0.00010682248543 0 -1.8486557393 -0.44588319017 0 
-1.7856922948 -0.86797341285 0 -1.6878729905 -1.2466906888 0 -1.5640693097 -1.5691270264 0 
-2.7767907384 2.7816189264 0 -2.9440110045 2.1914051189 0 -3.0741699184 1.515545547 0 
-3.1570445723 0.7751103663 0 -3.1855206706 -0.0001063114633 0 -3.157044848 -0.7753230069 0 
-3.0741703924 -1.5157582611 0 -2.9440116145 -2.1916179809 0 -2.7767914888 -2.7818320131 0 
-3.9869897717 3.99145295 0 -4.1761355846 3.1183744109 0 -4.3212531562 2.1427425757 0 
-4.4127016084 1.0914309039 0 -4.4439566411 -0.00010593507342 0 -4.4127021817 -1.0916427062 0 
-4.321254505 -2.1429536829 0 -4.1761383928 -3.1185830016 0 -3.9869958089 -3.9916549821 0 
-5.1957360278 5.1982088425 0 -5.3857218224 4.0275929081 0 -5.5293972069 2.7500891706 0 
-5.6189149484 1.3952736986 0 -5.6493122617 -9.6307504403e-05 0 -5.6189184438 -1.3954601482 0 
-5.5294044641 -2.7502610584 0 -5.3857362826 -4.0277472931 0 -5.1957620863 -5.1983429746 0 
-6.4018612708 6.4024350284 0 -6.5729475922 4.9197713522 0 -6.700303541 3.3384775557 0 
-6.778785016 1.6872965263 0 -6.8052675082 -6.5797300516e-05 0 -6.7787934273 -1.6874199541 0 
-6.7003197132 -3.3385811064 0 -6.5729746533 -4.9198524232 0 -6.4018973168 -6.4024955962 0 
-7.6042427114 7.6043740891 0 -7.7372521811 5.7957400087 0 -7.8347653406 3.9090744304 0 
-7.8942690877 1.9683390768 0 -7.9142589263 -3.4046608048e-05 0 -7.8942785875 -1.968403504 0 
-7.8347833384 -3.9091289129 0 -7.7372776031 -5.7957826689 0 -7.6042673589 -7.6044041782 0 
-8.803635859 8.8036123965 0 -8.8793712857 6.6557277826 0 -8.9341622111 4.4627096863 0 
-8.967256811 2.239068174 0 -8.9783204252 -1.4554304315e-05 0 -8.9672628609 -2.2390952669 0 
-8.9341734643 -4.4627320638 0 -8.8793854269 -6.6557452035 0 -8.8036463614 -8.8036217955 0 
-10 10 0 -10 7.5 0 -10 5 0 
-10 2.5 0 -10 0 0 -10 -2.5 0 
-10 -5 0 -10 -7.5 0 -10 -10 0 
-0.34857784863 -0.35366073869 0 -0.2783219791 -0.41209206193 0 -0.19359648284 -0.45896790253 0 
-0.097468403609 -0.48947916345 0 0.0049755413682 -0.50008519793 0 0.10741948635 -0.48947916346 0 
0.20354756558 -0.45896790254 0 0.28827306185 -0.41209206195 0 0.35852893137 -0.35366073872 0 
-1.5640693097 -1.5691270264 0 -1.2416324878 -1.6929339822 0 -0.86291402931 -1.7907579979 0 
-0.44082161365 -1.8537263083 0 0.0049575713841 -1.8754879715 0 0.45073697432 -1.8537310253 0 
0.87282988072 -1.7907668194 0 1.2515488788 -1.6929454127 0 1.573986198 -1.5691394876 0 
-2.7767914888 -2.7818320131 0 -2.1865801399 -2.9490601224 0 -1.5107204662 -3.0792232259 0 
-0.77028289255 -3.1621027416 0 0.0049388930105 -3.1905845139 0 0.78016144888 -3.1621119148 0 
1.5206021179 -3.0792386165 0 2.1964677531 -2.9490796052 0 2.7866877014 -2.7818558087 0 
-3.9869958089 -3.9916549821 0 -3.1137050296 -4.1810433919 0 -2.1379776518 -4.3262640043 0 
-1.0866263939 -4.4177519596 0 0.0049260810931 -4.4490210871 0 1.0964758749 -4.4177726616 0 
2.1477998371 -4.3263128333 0 3.1234321229 -4.1811426086 0 3.9964850977 -3.9918615008 0 
-5.1957620863 -5.1983429746 0 -4.0245260722 -5.3892892857 0 -2.7464279547 -5.5335699761 0 
-1.3911334467 -5.6235230282 0 0.0045088804542 -5.6541469259 0 1.3998966456 -5.6236662209 0 
2.7546140359 -5.5338475438 0 4.032071682 -5.3898036085 0 5.2026174613 -5.1992307429 0 
-6.4018973168 -6.4024955962 0 -4.9187546771 -6.5745794928 0 -3.3367222824 -6.7028829945 0 
-1.6847817997 -6.7821182658 0 0.0031566019514 -6.8090386065 0 1.6907757662 -6.7824612851 0 
3.3419687304 -6.7034932451 0 4.9232131228 -6.5755294841 0 6.4056951287 -6.403722404 0 
-7.6042673589 -7.6044041782 0 -5.7955455073 -7.7378512923 0 -3.9085405195 -7.836056905 0 
-1.9672574078 -7.8961890065 0 0.0017081172549 -7.9165641557 0 1.9705564047 -7.8965658516 0 
3.9115150767 -7.836718494 0 5.7981360202 -7.7387321044 0 7.6064736791 -7.6052648844 0 
-8.8036463614 -8.8036217955 0 -6.6557929566 -8.8795380034 0 -4.462677025 -8.934650472 0 
-2.238734391 -8.9681052722 0 0.00075958106665 -8.9793981375 0 2.2401948839 -8.9683374636 0 
4.4639919626 -8.935055007 0 6.6569450596 -8.8800270981 0 8.8045603907 -8.8040273738 0 
-10 -10 0 -7.5 -10 0 -5 -10 0 
-2.5 -10 0 0 -10 0 2.5 -10 0 
5 -10 0 7.5 -10 0 10 -10 0 

CELLS 321 1280
OFFSETS vtktypeint64
0 4 8 12 16 20 24 28 32 
36 40 44 48 52 56 60 64 68 
72 76 80 84 88 92 96 100 104 
108 112 116 120 124 128 132 136 140 
144 148 152 156 160 164 168 172 176 
180 184 188 192 196 200 204 208 212 
216 220 224 228 232 236 240 244 248 
252 256 260 264 268 272 276 280 284 
288 292 296 300 304 308 312 316 320 
324 328 332 336 340 344 348 352 356 
360 364 368 372 376 380 384 388 392 
396 400 404 408 412 416 420 424 428 
432 436 440 444 448 452 456 460 464 
468 472 476 480 484 488 492 496 500 
504 508 512 516 520 524 528 532 536 
540 544 548 552 556 560 564 568 572 
576 580 584 588 592 596 600 604 608 
612 616 620 624 628 632 636 640 644 
648 652 656 660 664 668 672 676 680 
684 688 692 696 700 704 708 712 716 
720 724 728 732 736 740 744 748 752 
756 760 764 768 772 776 780 784 788 
792 796 800 804 808 812 816 820 824 
828 832 836 840 844 848 852 856 860 
864 868 872 876 880 884 888 892 896 
900 904 908 912 916 920 924 928 932 
936 940 944 948 952 956 960 964 968 
972 976 980 984 988 992 996 1000 1004 
1008 1012 1016 1020 1024 1028 1032 1036 1040 
1044 1048 1052 1056 1060 1064 1068 1072 1076 
1080 1084 1088 1092 1096 1100 1104 1108 1112 
1116 1120 1124 1128 1132 1136 1140 1144 1148 
1152 1156 1160 1164 1168 1172 1176 1180 1184 
1188 1192 1196 1200 1204 1208 1212 1216 1220 
1224 1228 1232 1236 1240 1244 1248 1252 1256 
1260 1264 1268 1272 1276 1280 
CONNECTIVITY vtktypeint64
0 9 10 1 1 10 11 2 2 
11 12 3 3 12 13 4 4 13 
14 5 5 14 15 6 6 15 16 
7 7 16 17 8 9 18 19 10 
10 19 20 11 11 20 21 12 12 
21 22 13 13 22 23 14 14 23 
24 15 15 24 25 16 16 25 26 
17 18 27 28 19 19 28 29 20 
20 29 30 21 21 30 31 22 22 
31 32 23 23 32 33 24 24 33 
34 25 25 34 35 26 27 36 37 
28 28 37 38 29 29 38 39 30 
30 39 40 31 31 40 41 32 32 
41 42 33 33 42 43 34 34 43 
44 35 36 45 46 37 37 46 47 
38 38 47 48 39 39 48 49 40 
40 49 50 41 41 50 51 42 42 
51 52 43 43 52 53 44 45 54 
55 46 46 55 56 47 47 56 57 
48 48 57 58 49 49 58 59 50 
50 59 60 51 51 60 61 52 52 
61 62 53 54 63 64 55 55 64 
65 56 56 65 66 57 57 66 67 
58 58 67 68 59 59 68 69 60 
60 69 70 61 61 70 71 62 63 
72 73 64 64 73 74 65 65 74 
75 66 66 75 76 67 67 76 77 
68 68 77 78 69 69 78 79 70 
70 79 80 71 81 90 91 82 82 
91 92 83 83 92 93 84 84 93 
94 85 85 94 95 86 86 95 96 
87 87 96 97 88 88 97 98 89 
90 99 100 91 91 100 101 92 92 
101 102 93 93 102 103 94 94 103 
104 95 95 104 105 96 96 105 106 
97 97 106 107 98 99 108 109 100 
100 109 110 101 101 110 111 102 102 
111 112 103 103 112 113 104 104 113 
114 105 105 114 115 106 106 115 116 
107 108 117 118 109 109 118 119 110 
110 119 120 111 111 120 121 112 112 
121 122 113 113 122 123 114 114 123 
124 115 115 124 125 116 117 126 127 
118 118 127 128 119 119 128 129 120 
120 129 130 121 121 130 131 122 122 
131 132 123 123 132 133 124 124 133 
134 125 126 135 136 127 127 136 137 
128 128 137 138 129 129 138 139 130 
130 139 140 131 131 140 141 132 132 
141 142 133 133 142 143 134 135 144 
145 136 136 145 146 137 137 146 147 
138 138 147 148 139 139 148 149 140 
140 149 150 141 141 150 151 142 142 
151 152 143 144 153 154 145 145 154 
155 146 146 155 156 147 147 156 157 
148 148 157 158 149 149 158 159 150 
150 159 160 151 151 160 161 152 162 
171 172 163 163 172 173 164 164 173 
174 165 165 174 175 166 166 175 176 
167 167 176 177 168 168 177 178 169 
169 178 179 170 171 180 181 172 172 
181 182 173 173 182 183 174 174 183 
184 175 175 184 185 176 176 185 186 
177 177 186 187 178 178 187 188 179 
180 189 190 181 181 190 191 182 182 
191 192 183 183 192 193 184 184 193 
194 185 185 194 195 186 186 195 196 
187 187 196 197 188 189 198 199 190 
190 199 200 191 191 200 201 192 192 
201 202 193 193 202 203 194 194 203 
204 195 195 204 205 196 196 205 206 
197 198 207 208 199 199 208 209 200 
200 209 210 201 201 210 211 202 202 
211 212 203 203 212 213 204 204 213 
214 205 205 214 215 206 207 216 217 
208 208 217 218 209 209 218 219 210 
210 219 220 211 211 220 221 212 212 
221 222 213 213 222 223 214 214 223 
224 215 216 225 226 217 217 226 227 
218 218 227 228 219 219 228 229 220 
220 229 230 221 221 230 231 222 222 
231 232 223 223 232 233 224 225 234 
235 226 226 235 236 227 227 236 237 
228 228 237 238 229 229 238 239 230 
230 239 240 231 231 240 241 232 232 
241 242 233 243 252 253 244 244 253 
254 245 245 254 255 246 246 255 256 
247 247 256 257 248 248 257 258 249 
249 258 259 250 250 259 260 251 252 
261 262 253 253 262 263 254 254 263 
264 255 255 264 265 256 256 265 266 
257 257 266 267 258 258 267 268 259 
259 268 269 260 261 270 271 262 262 
271 272 263 263 272 273 264 264 273 
274 265 265 274 275 266 266 275 276 
267 267 276 277 268 268 277 278 269 
270 279 280 271 271 280 281 272 272 
281 282 273 273 282 283 274 274 283 
284 275 275 284 285 276 276 285 286 
277 277 286 287 278 279 288 289 280 
280 289 290 281 281 290 291 282 282 
291 292 283 283 292 293 284 284 293 
294 285 285 294 295 286 286 295 296 
287 288 297 298 289 289 298 299 290 
290 299 300 291 291 300 301 292 292 
301 302 293 293 302 303 294 294 303 
304 295 295 304 305 296 297 306 307 
298 298 307 308 299 299 308 309 300 
300 309 310 301 301 310 311 302 302 
311 312 303 303 312 313 304 304 313 
314 305 306 315 316 307 307 316 317 
308 308 317 318 309 309 318 319 310 
310 319 320 311 311 320 321 312 312 
321 322 313 313 322 323 314 324 333 
334 325 325 334 335 326 326 335 336 
327 327 336 337 328 328 337 338 329 
329 338 339 330 330 339 340 331 331 
340 341 332 333 342 343 334 334 343 
344 335 335 344 345 336 336 345 346 
337 337 346 347 338 338 347 348 339 
339 348 349 340 340 349 350 341 342 
351 352 343 343 352 353 344 344 353 
354 345 345 354 355 346 346 355 356 
347 347 356 357 348 348 357 358 349 
349 358 359 350 351 360 361 352 352 
361 362 353 353 362 363 354 354 363 
364 355 355 364 365 356 356 365 366 
357 357 366 367 358 358 367 368 359 
360 369 370 361 361 370 371 362 362 
371 372 363 363 372 373 364 364 373 
374 365 365 374 375 366 366 375 376 
367 367 376 377 368 369 378 379 370 
370 379 380 371 371 380 381 372 372 
381 382 373 373 382 383 374 374 383 
384 375 375 384 385 376 376 385 386 
377 378 387 388 379 379 388 389 380 
380 389 390 381 381 390 391 382 382 
391 392 383 383 392 393 384 384 393 
394 385 385 394 395 386 387 396 397 
388 388 397 398 389 389 398 399 390 
390 399 400 391 391 400 401 392 392 
401 402 393 393 402 403 394 394 403 
404 395 
CELL_TYPES 320
9
9
9
9
9
9
9
9
9
9
9
9
9
9
9
9
9
9
9
9
9
9
9
9
9
9
9
9
9
9
9
9
9
9
9
9
9
9
9
9
9
9
9
9
9
9
9
9
9
9
9
9
9
9
9
9
9
9
9
9
9
9
9
9
9
9
9
9
9
9
9
9
9
9
9
9
9
9
9
9
9
9
9
9
9
9
9
9
9
9
9
9
9
9
9
9
9
9
9
9
9
9
9
9
9
9
9
9
9
9
9
9
9
9
9
9
9
9
9
9
9
9
9
9
9
9
9
9
9
9
9
9
9
9
9
9
9
9
9
9
9
9
9
9
9
9
9
9
9
9
9
9
9
9
9
9
9
9
9
9
9
9
9
9
9
9
9
9
9
9
9
9
9
9
9
9
9
9
9
9
9
9
9
9
9
9
9
9
9
9
9
9
9
9
9
9
9
9
9
9
9
9
9
9
9
9
9
9
9
9
9
9
9
9
9
9
9
9
9
9
9
9
9
9
9
9
9
9
9
9
9
9
9
9
9
9
9
9
9
9
9
9
9
9
9
9
9
9
9
9
9
9
9
9
9
9
9
9
9
9
9
9
9
9
9
9
9
9
9
9
9
9
9
9
9
9
9
9
9
9
9
9
9
9
9
9
9
9
9
9
9
9
9
9
9
9
9
9
9
9
9
9
9
9
9
9
9
9
9
9
9
9
9
9
9
9
9
9
9
9

POINT_DATA 405
FIELD FieldData 4
p 1 405 double
0.21668708436 0.33002195046 0.19744145251 0.053784519058 -0.00022241409175 0.053569743245 0.19494621369 0.32662543687 0.20283644843 
0.011738424702 0.0044001174219 0.0032187066618 0.00079175184317 -0.0040699733151 0.00089235467241 0.0032767470531 0.004662016838 0.010310081775 
0.004124794556 0.0071708044026 0.0039246078033 0.0020381421566 0.00061263538447 0.0018432028348 0.003350529213 0.0068174610887 0.0020046929789 
-0.00025581302201 -0.0018234139104 -0.0015700765502 -0.0020416775591 -0.0027328647849 -0.0020299872722 -0.0016653913927 -0.0017384767817 -0.0011651707206 
0.0010264018319 0.0011175521639 0.00097092284874 0.0012106667084 0.0012697784656 0.0011545682735 0.00077261458814 0.0010777698741 0.00028862521495 
-3.2001892505e-05 -0.00019330195917 -0.00043643264534 -0.00091467216341 -0.0010878393326 -0.0009137268658 -0.0005175054266 -0.00018761205779 -0.0004406927922 
0.00031950216297 0.00016955184842 0.00032555218335 0.00052434986346 0.00052978048142 0.00050997886771 0.00027159500224 0.00018105175144 5.0686815968e-05 
2.0383095068e-05 -3.5363454241e-06 -0.0001142766491 -0.00024303305386 -0.00026892576798 -0.00024755858874 -0.00014759267155 -1.2911341634e-05 -0.00010533205168 
0.00012324348636 -0.00011064667888 -0.00018113453631 -0.0001864139949 -0.0002028884524 -0.00019131615193 -0.00017858210337 -0.00011822135044 0.00016695345424 
-1.059707709 -0.38744273493 -0.3869979563 -0.84005593076 -2.4275005522 -0.83694377796 -0.38289850454 -0.38088959233 -1.0509177455 
-0.017181339614 -0.14443899947 -0.19969840966 -0.16610522008 0.011609961276 -0.16382023073 -0.19517503338 -0.13897811857 -0.01156050954 
-0.031144452991 0.012535069381 0.001066002192 -0.051676222548 -0.13586073477 -0.051283091238 0.0012998093153 0.012182445907 -0.031753691019 
-0.0024628960737 -0.05099164063 -0.053027235634 -0.020482522149 0.022451052357 -0.020403597995 -0.052466193839 -0.050345925096 -0.0017842147649 
0.006771464889 0.02660388268 -0.0010736110289 -0.050104970123 -0.10194034201 -0.050085884233 -0.00089489728435 0.025547597379 0.0042873790409 
0.0018751946798 -0.016074018373 -0.0033384925587 0.018482863954 0.044652615176 0.018302636685 -0.003564894586 -0.016679995961 -0.0012249300881 
0.032468065027 0.011904824879 -0.011974579882 -0.036693045098 -0.05323833563 -0.036554801858 -0.012271570473 0.012005098262 0.023024452739 
-0.020444131015 -0.027421969833 -0.0052817189812 0.013247468517 0.016623919703 0.012836082793 -0.0056267037323 -0.027552860634 -0.027727948633 
0.21668708436 0.33002195046 0.19744145251 0.053784519058 -0.00022241409175 0.053569743245 0.19494621369 0.32662543687 0.20283644843 
-1.0509177455 -0.29103934267 -0.32971738109 -0.30104125019 -0.23633597871 -0.14286917352 -0.03680068331 0.014900090529 0.86415897849 
-0.01156050954 -0.067844271905 -0.018964730027 0.03650807942 0.093264341301 0.14691279404 0.19274077271 0.22977686902 0.16401227761 
-0.031753691019 0.0077854377808 0.0056233531316 0.018508870765 0.047779236474 0.078203771483 0.096569393194 0.10330367979 0.1496203672 
-0.0017842147649 -0.0062488555049 0.020403513284 0.044378884885 0.066827739657 0.089733205398 0.11245956679 0.13334876431 0.12171257844 
0.0042873790409 0.018591061138 0.01676504621 0.032145632103 0.05466076635 0.076521156986 0.091727370451 0.091911394137 0.11541452832 
-0.0012249300881 0.012964853114 0.029062009122 0.04488890118 0.061240557586 0.079213550358 0.092933197143 0.1078776029 0.10294723742 
0.023024452739 0.010935195041 0.018209848547 0.035624724867 0.055990934124 0.075390882064 0.091304138898 0.091133563651 0.088554436056 
-0.027727948633 0.0058706373481 0.017800849172 0.038952559098 0.056967230864 0.080229667476 0.091745009279 0.10693146173 0.099177271692 
0.20283644843 0.14941766682 0.091894520893 0.071401048703 0.066747141016 0.049845107667 0.042093119592 -0.030878998287 0.031025165873 
0.86415897849 0.22053505965 0.2626056751 0.76408089683 2.3843858497 0.76667872243 0.27905530085 0.22144395692 0.84140771776 
0.16401227761 0.28424548731 0.33508843042 0.30093527239 0.12470545768 0.30883122608 0.34996235667 0.30017784953 0.17167345079 
0.1496203672 0.11648024059 0.13042827482 0.18048721401 0.26148060903 0.17010374069 0.1055110057 0.088373130768 0.14019496953 
0.12171257844 0.16144372964 0.16777032989 0.14195130095 0.10459014813 0.15309063653 0.19479531014 0.19996544193 0.13956190131 
0.11541452832 0.10681788547 0.13255998425 0.18115800461 0.22988955447 0.17191959761 0.11570711962 0.080028918939 0.11314272656 
0.10294723742 0.11767190048 0.11670529559 0.099550862093 0.081219806661 0.11621142715 0.1423981456 0.16618453393 0.13503088452 
0.088554436056 0.10972550804 0.13545948392 0.17072524676 0.18651850265 0.15937397706 0.13648230998 0.096893336098 0.092564972638 
0.099177271692 0.10438076884 0.11194855358 0.10949690384 0.11583371045 0.1242411116 0.14912656958 0.17849590585 0.17510128951 
0.031025165873 -0.084501205119 0.012696762605 0.13153453983 0.14481709149 0.024864487939 -0.19255171627 -0.42943046796 -0.044827468967 
0.84140771776 -0.0053595065306 -0.057029156762 -0.16288601083 -0.25318563463 -0.31723873665 -0.3438699478 -0.30246055039 -1.059707709 
0.17167345079 0.23422241755 0.19134285268 0.14104259942 0.085434878245 0.028360627283 -0.026786911113 -0.074683477669 -0.017181339614 
0.14019496953 0.09829681604 0.098190005738 0.08213394469 0.050533515287 0.020564996425 0.0074507810381 0.0093600235367 -0.031144452991 
0.13956190131 0.14199053439 0.11384008605 0.089380107483 0.06706353019 0.044063812148 0.019170567445 -0.0075102145904 -0.0024628960737 
0.11314272656 0.10102111738 0.10191635353 0.084038435113 0.059226564111 0.035347903681 0.019263632427 0.021503830484 0.006771464889 
0.13503088452 0.11713011096 0.099714996666 0.083922954848 0.066566495926 0.046275143579 0.03115663031 0.013118730724 0.0018751946798 
0.092564972638 0.11858412701 0.10336154341 0.085036306725 0.062739852598 0.037404436396 0.022431993842 0.011433534692 0.032468065027 
0.17510128951 0.12088296147 0.11003093268 0.082569061758 0.065898521584 0.036926959269 0.021961344217 0.0023277556219 -0.020444131015 
-0.044827468967 -0.020952808582 0.055110344544 0.080950548787 0.086197528875 0.09193074708 0.11043501428 0.16447305868 0.21668708436 

u 3 405 double
0.79697347246 0 0 0.79708576377 -0.00075002044391 0 0.79738725218 -0.001557986522 0 
0.79797910672 -0.0025350676279 0 0.79904707786 -0.0036267946641 0 0.8007751966 -0.004161613643 0 
0.80254482869 -0.0035568174168 0 0.80381443464 -0.0020054690557 0 0.80424142033 0 0 
0.79787278001 0 0 0.79800113798 -0.00069331323186 0 0.79826622301 -0.001371993769 0 
0.79878527376 -0.0019972033583 0 0.79960219391 -0.0024468370645 0 0.8006744145 -0.0025221345601 0 
0.80175243314 -0.0020842934812 0 0.80255461439 -0.0011771809883 0 0.80279380363 0 0 
0.79850151268 0 0 0.79857582393 -0.00050105303886 0 0.79881912115 -0.00097181291761 0 
0.79923448805 -0.0013800879082 0 0.79981579371 -0.0016422048005 0 0.8005152326 -0.0016536973775 0 
0.80118439489 -0.0013492500452 0 0.80166699875 -0.00075448730372 0 0.80183933865 0 0 
0.79893894185 0 0 0.79900301741 -0.00036626400043 0 0.79919425008 -0.00070283050684 0 
0.7995081723 -0.00096021112558 0 0.79992117705 -0.0010974062679 0 0.8003819309 -0.0010674184705 0 
0.80080780896 -0.00084901131985 0 0.80111232449 -0.00047322986106 0 0.80121776707 0 0 
0.7992466551 0 0 0.79929806867 -0.0002497829778 0 0.79944243263 -0.0004714821844 0 
0.79967108463 -0.0006404987712 0 0.79996174966 -0.00072299688614 0 0.80027461512 -0.00069524343953 0 
0.80055707884 -0.00055079984772 0 0.80075526071 -0.00030353036586 0 0.80082077499 0 0 
0.79945982235 0 0 0.79949534308 -0.00016582404313 0 0.79960533034 -0.00031127847087 0 
0.79977516944 -0.00041551920299 0 0.79998375517 -0.00046205320146 0 0.80020274063 -0.00043821823596 0 
0.80039508191 -0.00034218592269 0 0.80052792099 -0.000187699181 0 0.80057500915 0 0 
0.79959176069 0 0 0.79962133841 -9.8949039529e-05 0 0.79970566472 -0.00018552812535 0 
0.79983469911 -0.00024703808285 0 0.79999166387 -0.00027305848424 0 0.80015321994 -0.00025746814316 0 
0.80029392978 -0.00020063395836 0 0.80039044257 -0.00011004340623 0 0.8004225638 0 0 
0.79966612794 0 0 0.79969005191 -4.6743955992e-05 0 0.79976075534 -8.6952450526e-05 0 
0.79986767791 -0.00011518504302 0 0.79999595214 -0.00012677248644 0 0.80012682591 -0.00011904949353 0 
0.80023941121 -9.2332049581e-05 0 0.80031587523 -5.026325903e-05 0 0.80034200693 0 0 
0.79968947033 0 0 0.79971214192 -1.2421189937e-08 0 0.79977805857 2.2069464684e-07 0 
0.79987761103 -1.2586619068e-07 0 0.79999683045 -5.3052975982e-07 0 0.80011792899 -8.2153316302e-07 0 
0.80022192758 -9.1518528072e-07 0 0.80029247293 -4.0450789688e-07 0 0.80031627704 0 0 
0.83986040119 0.46051345973 0 0.65748012678 0.44675799421 0 0.47629350784 0.3535245818 0 
0.3275777774 0.17746776986 0 0.26459097472 -0.027232396259 0 0.33697762771 -0.23014408576 0 
0.49309407913 -0.40143230148 0 0.67863413608 -0.48838992481 0 0.86231711567 -0.49577081387 0 
0.7895659879 0.011461334805 0 0.78549512048 0.015819232233 0 0.77467596952 0.017882496455 0 
0.76106772284 0.0099477939782 0 0.75491440709 -0.013673472329 0 0.76371446777 -0.036970795117 0 
0.77942219892 -0.044252182906 0 0.79175863799 -0.041705301912 0 0.79703630805 -0.037233020508 0 
0.80007721429 0.0051701279165 0 0.79466831958 0.0058818891501 0 0.7883617451 0.0035089488047 0 
0.78322896914 -0.0028558773286 0 0.78251910341 -0.01093250613 0 0.7861412758 -0.018850628418 0 
0.79397557726 -0.024825952183 0 0.8026837167 -0.026725188259 0 0.81017872699 -0.025558954153 0 
0.79426139812 -0.0024030494466 0 0.79431609675 -0.0018966242247 0 0.79309090429 -0.0019569873019 0 
0.79135850673 -0.004212396541 0 0.79107565794 -0.0087778748733 0 0.79448382981 -0.013107394586 0 
0.79913598281 -0.014732991058 0 0.80299061857 -0.01394032532 0 0.80528072838 -0.012501469188 0 
0.79692023701 -0.0016370283239 0 0.79625246743 -0.0018700199756 0 0.79546724697 -0.0027126760709 0 
0.79472689922 -0.0043528673577 0 0.79537207384 -0.0072497742852 0 0.79794849441 -0.0098414528845 0 
0.80170787419 -0.010621282913 0 0.80521210731 -0.010199226171 0 0.80824397814 -0.0088920610174 0 
0.7953913127 -0.0017859939011 0 0.79586637513 -0.0020968771688 0 0.79584567354 -0.0026330846214 0 
0.79600300605 -0.0041200486521 0 0.79700897929 -0.0060174756722 0 0.79920520737 -0.0075266714467 0 
0.80200851031 -0.0078911990114 0 0.80458522609 -0.0067516103206 0 0.80620588729 -0.0049702039173 0 
0.79671755154 -0.00085631678839 0 0.79682061945 -0.0016841804983 0 0.79695226689 -0.0025042490522 0 
0.79713753781 -0.003592786372 0 0.79805279786 -0.0050540553899 0 0.80024064469 -0.0060511757474 0 
0.80287231825 -0.0058249303996 0 0.8050202249 -0.004664722308 0 0.80662624806 -0.0030020911878 0 
0.79630489371 -0.00048836497881 0 0.79679834555 -0.0012341791521 0 0.7970013661 -0.0020337731801 0 
0.79756240294 -0.0030698737404 0 0.79869498019 -0.004272651509 0 0.80052238181 -0.004944566992 0 
0.80257620374 -0.0045164492558 0 0.80428670085 -0.0030868218388 0 0.80502311642 -0.0011270436908 0 
0.79697347246 0 0 0.79708576377 -0.00075002044391 0 0.79738725218 -0.001557986522 0 
0.79797910672 -0.0025350676279 0 0.79904707786 -0.0036267946641 0 0.8007751966 -0.004161613643 0 
0.80254482869 -0.0035568174168 0 0.80381443464 -0.0020054690557 0 0.80424142033 0 0 
0.86231711567 -0.49577081387 0 1.0322048685 -0.49420486911 0 1.2001824041 -0.40111229756 0 
1.3281532291 -0.22863205401 0 1.3742450291 -0.0043188178591 0 1.319359513 0.21769503928 0 
1.184910882 0.38360316804 0 1.0140594125 0.46765369385 0 0.84332048355 0.46084962639 0 
0.79703630805 -0.037233020508 0 0.8043328059 -0.039738970561 0 0.81821202699 -0.041962893466 0 
0.83484881896 -0.034092133166 0 0.84235716677 -0.015465288029 0 0.83431953807 0.002657328086 0 
0.81765227254 0.0094161916068 0 0.80421353168 0.0061004512712 0 0.79763097625 0.002743516293 0 