# vtk DataFile Version 5.1
vtk output
ASCII
DATASET UNSTRUCTURED_GRID
POINTS 225 double
0 0 584.35644531 27794.369141 0 649.97723389 55588.738281 0 585.97851562 
83383.107422 0 427.07122803 111177.47656 0 223.46755981 138971.8457 0 60.34375 
166766.21484 0 0 194560.58398 0 0 222354.95312 0 0.11677514762 
250149.32227 0 0 277943.69141 0 0 305738.06055 0 7.3819055557 
333532.42969 0 46.395385742 361326.79883 0 111.46739197 389121.16797 0 173.37158203 
0 27794.369141 765.73352051 27794.369141 27794.369141 867.48095703 55588.738281 27794.369141 745.09936523 
83383.107422 27794.369141 553.73242188 111177.47656 27794.369141 335.16513062 138971.8457 27794.369141 132.50930786 
166766.21484 27794.369141 13.1067276 194560.58398 27794.369141 0 222354.95312 27794.369141 0 
250149.32227 27794.369141 0 277943.69141 27794.369141 5.2533388138 305738.06055 27794.369141 33.611335754 
333532.42969 27794.369141 71.522003174 361326.79883 27794.369141 114.59535217 389121.16797 27794.369141 176.64898682 
0 55588.738281 871.17230225 27794.369141 55588.738281 998.58605957 55588.738281 55588.738281 825.44750977 
83383.107422 55588.738281 619.50488281 111177.47656 55588.738281 417.91778564 138971.8457 55588.738281 195.51190186 
166766.21484 55588.738281 35.570053101 194560.58398 55588.738281 0 222354.95312 55588.738281 0 
250149.32227 55588.738281 2.6883683205 277943.69141 55588.738281 39.172679901 305738.06055 55588.738281 77.991394043 
333532.42969 55588.738281 81.459022522 361326.79883 55588.738281 82.73387146 389121.16797 55588.738281 136.4256897 
0 83383.107422 955.28613281 27794.369141 83383.107422 1020.2553711 55588.738281 83383.107422 836.27490234 
83383.107422 83383.107422 628.00067139 111177.47656 83383.107422 453.09857178 138971.8457 83383.107422 249.81008911 
166766.21484 83383.107422 100.04871368 194560.58398 83383.107422 27.23756218 222354.95312 83383.107422 0.037865750492 
250149.32227 83383.107422 17.877374649 277943.69141 83383.107422 96.53704834 305738.06055 83383.107422 127.53349304 
333532.42969 83383.107422 83.08265686 361326.79883 83383.107422 55.310466766 389121.16797 83383.107422 95.352005005 
0 111177.47656 1121.0671387 27794.369141 111177.47656 1062.8485107 55588.738281 111177.47656 904.17712402 
83383.107422 111177.47656 714.74963379 111177.47656 111177.47656 506.87567139 138971.8457 111177.47656 335.70330811 
166766.21484 111177.47656 214.43771362 194560.58398 111177.47656 75.153213501 222354.95312 111177.47656 3.5511703491 
250149.32227 111177.47656 53.89774704 277943.69141 111177.47656 140.29675293 305738.06055 111177.47656 149.1149292 
333532.42969 111177.47656 84.226608276 361326.79883 111177.47656 46.648536682 389121.16797 111177.47656 64.639671326 
0 138971.8457 1325.5761719 27794.369141 138971.8457 1208.682373 55588.738281 138971.8457 1099.7348633 
83383.107422 138971.8457 890.11938477 111177.47656 138971.8457 591.12145996 138971.8457 138971.8457 401.69848633 
166766.21484 138971.8457 263.14358521 194560.58398 138971.8457 97.823577881 222354.95312 138971.8457 54.119289398 
250149.32227 138971.8457 111.6723175 277943.69141 138971.8457 161.54534912 305738.06055 138971.8457 156.2052002 
333532.42969 138971.8457 93.838424683 361326.79883 138971.8457 45.497444153 389121.16797 138971.8457 47.000656128 
0 166766.21484 1309.7154541 27794.369141 166766.21484 1272.0119629 55588.738281 166766.21484 1206.2194824 
83383.107422 166766.21484 980.04638672 111177.47656 166766.21484 648.16601562 138971.8457 166766.21484 392.43057251 
166766.21484 166766.21484 233.95846558 194560.58398 166766.21484 131.87313843 222354.95312 166766.21484 132.706604 
250149.32227 166766.21484 175.03291321 277943.69141 166766.21484 183.08529663 305738.06055 166766.21484 158.94064331 
333532.42969 166766.21484 98.5418396 361326.79883 166766.21484 47.664100647 389121.16797 166766.21484 50.034744263 
0 194560.58398 1205.5869141 27794.369141 194560.58398 1222.7253418 55588.738281 194560.58398 1118.4470215 
83383.107422 194560.58398 960.7845459 111177.47656 194560.58398 685.94348145 138971.8457 194560.58398 392.15991211 
166766.21484 194560.58398 254.53112793 194560.58398 194560.58398 206.8561554 222354.95312 194560.58398 197.38000488 
250149.32227 194560.58398 217.8338623 277943.69141 194560.58398 201.57531738 305738.06055 194560.58398 159.47784424 
333532.42969 194560.58398 111.16960144 361326.79883 194560.58398 78.188873291 389121.16797 194560.58398 94.914756775 
0 222354.95312 1301.0878906 27794.369141 222354.95312 1230.513916 55588.738281 222354.95312 1008.5774536 
83383.107422 222354.95312 896.70178223 111177.47656 222354.95312 721.94555664 138971.8457 222354.95312 462.3137207 
166766.21484 222354.95312 358.61126709 194560.58398 222354.95312 307.2388916 222354.95312 222354.95312 234.52456665 
250149.32227 222354.95312 236.68429565 277943.69141 222354.95312 231.52957153 305738.06055 222354.95312 190.93606567 
333532.42969 222354.95312 159.88217163 361326.79883 222354.95312 155.51174927 389121.16797 222354.95312 176.41122437 
0 250149.32227 1245.8117676 27794.369141 250149.32227 1266.8540039 55588.738281 250149.32227 1001.859375 
83383.107422 250149.32227 826.55523682 111177.47656 250149.32227 692.81762695 138971.8457 250149.32227 494.89556885 
166766.21484 250149.32227 403.01849365 194560.58398 250149.32227 357.73220825 222354.95312 250149.32227 283.82971191 
250149.32227 250149.32227 273.6171875 277943.69141 250149.32227 275.54949951 305738.06055 250149.32227 227.13122559 
333532.42969 250149.32227 210.20315552 361326.79883 250149.32227 243.91067505 389121.16797 250149.32227 254.67997742 
0 277943.69141 1051.887207 27794.369141 277943.69141 1255.8292236 55588.738281 277943.69141 1044.3829346 
83383.107422 277943.69141 847.01293945 111177.47656 277943.69141 695.86682129 138971.8457 277943.69141 485.95758057 
166766.21484 277943.69141 353.91360474 194560.58398 277943.69141 330.3550415 222354.95312 277943.69141 323.35998535 
250149.32227 277943.69141 321.21218872 277943.69141 277943.69141 321.68508911 305738.06055 277943.69141 283.90203857 
333532.42969 277943.69141 275.1020813 361326.79883 277943.69141 306.52005005 389121.16797 277943.69141 296.83148193 
0 305738.06055 1226.8986816 27794.369141 305738.06055 1364.8625488 55588.738281 305738.06055 1147.284668 
83383.107422 305738.06055 943.68457031 111177.47656 305738.06055 778.47943115 138971.8457 305738.06055 587.14160156 
166766.21484 305738.06055 447.97033691 194560.58398 305738.06055 365.31890869 222354.95312 305738.06055 352.62295532 
250149.32227 305738.06055 372.25012207 277943.69141 305738.06055 388.16625977 305738.06055 305738.06055 375.24169922 
333532.42969 305738.06055 348.15588379 361326.79883 305738.06055 328.96063232 389121.16797 305738.06055 290.65240479 
0 333532.42969 1417.6271973 27794.369141 333532.42969 1401.8774414 55588.738281 333532.42969 1125.9571533 
83383.107422 333532.42969 905.33520508 111177.47656 333532.42969 829.86047363 138971.8457 333532.42969 772.10870361 
166766.21484 333532.42969 625.1763916 194560.58398 333532.42969 470.65710449 222354.95312 333532.42969 442.11724854 
250149.32227 333532.42969 456.55621338 277943.69141 333532.42969 470.09289551 305738.06055 333532.42969 437.23544312 
333532.42969 333532.42969 360.75082397 361326.79883 333532.42969 304.57086182 389121.16797 333532.42969 259.31072998 
0 361326.79883 1307.9057617 27794.369141 361326.79883 1187.3292236 55588.738281 361326.79883 1001.9157104 
83383.107422 361326.79883 922.64489746 111177.47656 361326.79883 905.81152344 138971.8457 361326.79883 811.91217041 
166766.21484 361326.79883 655.32568359 194560.58398 361326.79883 599.05822754 222354.95312 361326.79883 601.40490723 
250149.32227 361326.79883 556.01391602 277943.69141 361326.79883 510.62084961 305738.06055 361326.79883 432.38265991 
333532.42969 361326.79883 328.67294312 361326.79883 361326.79883 269.72589111 389121.16797 361326.79883 244.15187073 
0 389121.16797 1273.5721436 27794.369141 389121.16797 1181.5809326 55588.738281 389121.16797 1115.7358398 
83383.107422 389121.16797 1086.6953125 111177.47656 389121.16797 949.58703613 138971.8457 389121.16797 742.23736572 
166766.21484 389121.16797 684.49414062 194560.58398 389121.16797 741.69360352 222354.95312 389121.16797 718.22998047 
250149.32227 389121.16797 598.19519043 277943.69141 389121.16797 512.02575684 305738.06055 389121.16797 458.19094849 
333532.42969 389121.16797 366.07867432 361326.79883 389121.16797 285.40960693 389121.16797 389121.16797 273.02929688 

CELLS 197 784
OFFSETS vtktypeint64
0 4 8 12 16 20 24 28 32 
36 40 44 48 52 56 60 64 68 
72 76 80 84 88 92 96 100 104 
108 112 116 120 124 128 132 136 140 
144 148 152 156 160 164 168 172 176 
180 184 188 192 196 200 204 208 212 
216 220 224 228 232 236 240 244 248 
252 256 260 264 268 272 276 280 284 
288 292 296 300 304 308 312 316 320 
324 328 332 336 340 344 348 352 356 
360 364 368 372 376 380 384 388 392 
396 400 404 408 412 416 420 424 428 
432 436 440 444 448 452 456 460 464 
468 472 476 480 484 488 492 496 500 
504 508 512 516 520 524 528 532 536 
540 544 548 552 556 560 564 568 572 
576 580 584 588 592 596 600 604 608 
612 616 620 624 628 632 636 640 644 
648 652 656 660 664 668 672 676 680 
684 688 692 696 700 704 708 712 716 
720 724 728 732 736 740 744 748 752 
756 760 764 768 772 776 780 784 
CONNECTIVITY vtktypeint64
0 15 16 1 1 16 17 2 2 
17 18 3 3 18 19 4 4 19 
20 5 5 20 21 6 6 21 22 
7 7 22 23 8 8 23 24 9 
9 24 25 10 10 25 26 11 11 
26 27 12 12 27 28 13 13 28 
29 14 15 30 31 16 16 31 32 
17 17 32 33 18 18 33 34 19 
19 34 35 20 20 35 36 21 21 
36 37 22 22 37 38 23 23 38 
39 24 24 39 40 25 25 40 41 
26 26 41 42 27 27 42 43 28 
28 43 44 29 30 45 46 31 31 
46 47 32 32 47 48 33 33 48 
49 34 34 49 50 35 35 50 51 
36 36 51 52 37 37 52 53 38 
38 53 54 39 39 54 55 40 40 
55 56 41 41 56 57 42 42 57 
58 43 43 58 59 44 45 60 61 
46 46 61 62 47 47 62 63 48 
48 63 64 49 49 64 65 50 50 
65 66 51 51 66 67 52 52 67 
68 53 53 68 69 54 54 69 70 
55 55 70 71 56 56 71 72 57 
57 72 73 58 58 73 74 59 60 
75 76 61 61 76 77 62 62 77 
78 63 63 78 79 64 64 79 80 
65 65 80 81 66 66 81 82 67 
67 82 83 68 68 83 84 69 69 
84 85 70 70 85 86 71 71 86 
87 72 72 87 88 73 73 88 89 
74 75 90 91 76 76 91 92 77 
77 92 93 78 78 93 94 79 79 
94 95 80 80 95 96 81 81 96 
97 82 82 97 98 83 83 98 99 
84 84 99 100 85 85 100 101 86 
86 101 102 87 87 102 103 88 88 
103 104 89 90 105 106 91 91 106 
107 92 92 107 108 93 93 108 109 
94 94 109 110 95 95 110 111 96 
96 111 112 97 97 112 113 98 98 
113 114 99 99 114 115 100 100 115 
116 101 101 116 117 102 102 117 118 
103 103 118 119 104 105 120 121 106 
106 121 122 107 107 122 123 108 108 
123 124 109 109 124 125 110 110 125 
126 111 111 126 127 112 112 127 128 
113 113 128 129 114 114 129 130 115 
115 130 131 116 116 131 132 117 117 
132 133 118 118 133 134 119 120 135 
136 121 121 136 137 122 122 137 138 
123 123 138 139 124 124 139 140 125 
125 140 141 126 126 141 142 127 127 
142 143 128 128 143 144 129 129 144 
145 130 130 145 146 131 131 146 147 
132 132 147 148 133 133 148 149 134 
135 150 151 136 136 151 152 137 137 
152 153 138 138 153 154 139 139 154 
155 140 140 155 156 141 141 156 157 
142 142 157 158 143 143 158 159 144 
144 159 160 145 145 160 161 146 146 
161 162 147 147 162 163 148 148 163 
164 149 150 165 166 151 151 166 167 
152 152 167 168 153 153 168 169 154 
154 169 170 155 155 170 171 156 156 
171 172 157 157 172 173 158 158 173 
174 159 159 174 175 160 160 175 176 
161 161 176 177 162 162 177 178 163 
163 178 179 164 165 180 181 166 166 
181 182 167 167 182 183 168 168 183 
184 169 169 184 185 170 170 185 186 
171 171 186 187 172 172 187 188 173 
173 188 189 174 174 189 190 175 175 
190 191 176 176 191 192 177 177 192 
193 178 178 193 194 179 180 195 196 
181 181 196 197 182 182 197 198 183 
183 198 199 184 184 199 200 185 185 
200 201 186 186 201 202 187 187 202 
203 188 188 203 204 189 189 204 205 
190 190 205 206 191 191 206 207 192 
192 207 208 193 193 208 209 194 195 
210 211 196 196 211 212 197 197 212 
213 198 198 213 214 199 199 214 215 
200 200 215 216 201 201 216 217 202 
202 217 218 203 203 218 219 204 204 
219 220 205 205 220 221 206 206 221 
222 207 207 222 223 208 208 223 224 
209 
CELL_TYPES 196
9
9
9
9
9
9
9
9
9
9
9
9
9
9
9
9
9
9
9
9
9
9
9
9
9
9
9
9
9
9
9
9
9
9
9
9
9
9
9
9
9
9
9
9
9
9
9
9
9
9
9
9
9
9
9
9
9
9
9
9
9
9
9
9
9
9
9
9
9
9
9
9
9
9
9
9
9
9
9
9
9
9
9
9
9
9
9
9
9
9
9
9
9
9
9
9
9
9
9
9
9
9
9
9
9
9
9
9
9
9
9
9
9
9
9
9
9
9
9
9
9
9
9
9
9
9
9
9
9
9
9
9
9
9
9
9
9
9
9
9
9
9
9
9
9
9
9
9
9
9
9
9
9
9
9
9
9
9
9
9
9
9
9
9
9
9
9
9
9
9
9
9
9
9
9
9
9
9
9
9
9
9
9
9
9
9
9
9
9
9
9
9
9
9
9
9

POINT_DATA 225
FIELD FieldData 45
CLAT 1 225 float
-0.0309182 -0.0309182 -0.0309182 -0.0309182 -0.0309182 -0.0309182 -0.0309182 -0.0309182 -0.0309182 
-0.0309182 -0.0309182 -0.0309182 -0.0309182 -0.0309182 -0.0309182 0.219082 0.219082 0.219082 
0.219082 0.219082 0.219082 0.219082 0.219082 0.219082 0.219082 0.219082 0.219082 
0.219082 0.219082 0.219082 0.469082 0.469082 0.469082 0.469082 0.469082 0.469082 
0.469082 0.469082 0.469082 0.469082 0.469082 0.469082 0.469082 0.469082 0.469082 
0.719082 0.719082 0.719082 0.719082 0.719082 0.719082 0.719082 0.719082 0.719082 
0.719082 0.719082 0.719082 0.719082 0.719082 0.719082 0.969082 0.969082 0.969082 
0.969082 0.969082 0.969082 0.969082 0.969082 0.969082 0.969082 0.969082 0.969082 
0.969082 0.969082 0.969082 1.21908 1.21908 1.21908 1.21908 1.21908 1.21908 
1.21908 1.21908 1.21908 1.21908 1.21908 1.21908 1.21908 1.21908 1.21908 
1.46908 1.46908 1.46908 1.46908 1.46908 1.46908 1.46908 1.46908 1.46908 
1.46908 1.46908 1.46908 1.46908 1.46908 1.46908 1.71908 1.71908 1.71908 
1.71908 1.71908 1.71908 1.71908 1.71908 1.71908 1.71908 1.71908 1.71908 
1.71908 1.71908 1.71908 1.96908 1.96908 1.96908 1.96908 1.96908 1.96908 
1.96908 1.96908 1.96908 1.96908 1.96908 1.96908 1.96908 1.96908 1.96908 
2.21908 2.21908 2.21908 2.21908 2.21908 2.21908 2.21908 2.21908 2.21908 
2.21908 2.21908 2.21908 2.21908 2.21908 2.21908 2.46908 2.46908 2.46908 
2.46908 2.46908 2.46908 2.46908 2.46908 2.46908 2.46908 2.46908 2.46908 
2.46908 2.46908 2.46908 2.71908 2.71908 2.71908 2.71908 2.71908 2.71908 
2.71908 2.71908 2.71908 2.71908 2.71908 2.71908 2.71908 2.71908 2.71908 
2.96908 2.96908 2.96908 2.96908 2.96908 2.96908 2.96908 2.96908 2.96908 
2.96908 2.96908 2.96908 2.96908 2.96908 2.96908 3.21908 3.21908 3.21908 
3.21908 3.21908 3.21908 3.21908 3.21908 3.21908 3.21908 3.21908 3.21908 
3.21908 3.21908 3.21908 3.46908 3.46908 3.46908 3.46908 3.46908 3.46908 
3.46908 3.46908 3.46908 3.46908 3.46908 3.46908 3.46908 3.46908 3.46908 

CLONG 1 225 float
-160.476 -160.226 -159.976 -159.726 -159.476 -159.226 -158.976 -158.726 -158.476 
-158.226 -157.976 -157.726 -157.476 -157.226 -156.976 -160.476 -160.226 -159.976 
-159.726 -159.476 -159.226 -158.976 -158.726 -158.476 -158.226 -157.976 -157.726 
-157.476 -157.226 -156.976 -160.476 -160.226 -159.976 -159.726 -159.476 -159.226 
-158.976 -158.726 -158.476 -158.226 -157.976 -157.726 -157.476 -157.226 -156.976 
-160.476 -160.226 -159.976 -159.726 -159.476 -159.226 -158.976 -158.726 -158.476 
-158.226 -157.976 -157.726 -157.476 -157.226 -156.976 -160.476 -160.226 -159.976 
-159.726 -159.476 -159.226 -158.976 -158.726 -158.476 -158.226 -157.976 -157.726 
-157.476 -157.226 -156.976 -160.476 -160.226 -159.976 -159.726 -159.476 -159.226 
-158.976 -158.726 -158.476 -158.226 -157.976 -157.726 -157.476 -157.226 -156.976 
-160.476 -160.226 -159.976 -159.726 -159.476 -159.226 -158.976 -158.726 -158.476 
-158.226 -157.976 -157.726 -157.476 -157.226 -156.976 -160.476 -160.226 -159.976 
-159.726 -159.476 -159.226 -158.976 -158.726 -158.476 -158.226 -157.976 -157.726 
-157.476 -157.226 -156.976 -160.476 -160.226 -159.976 -159.726 -159.476 -159.226 
-158.976 -158.726 -158.476 -158.226 -157.976 -157.726 -157.476 -157.226 -156.976 
-160.476 -160.226 -159.976 -159.726 -159.476 -159.226 -158.976 -158.726 -158.476 
-158.226 -157.976 -157.726 -157.476 -157.226 -156.976 -160.476 -160.226 -159.976 
-159.726 -159.476 -159.226 -158.976 -158.726 -158.476 -158.226 -157.976 -157.726 
-157.476 -157.226 -156.976 -160.476 -160.226 -159.976 -159.726 -159.476 -159.226 
-158.976 -158.726 -158.476 -158.226 -157.976 -157.726 -157.476 -157.226 -156.976 
-160.476 -160.226 -159.976 -159.726 -159.476 -159.226 -158.976 -158.726 -158.476 
-158.226 -157.976 -157.726 -157.476 -157.226 -156.976 -160.476 -160.226 -159.976 
-159.726 -159.476 -159.226 -158.976 -158.726 -158.476 -158.226 -157.976 -157.726 
-157.476 -157.226 -156.976 -160.476 -160.226 -159.976 -159.726 -159.476 -159.226 
-158.976 -158.726 -158.476 -158.226 -157.976 -157.726 -157.476 -157.226 -156.976 

CON 1 225 float
0.08125 0.5125 0.43125 0.21875 0.28125 1 0 0 0 
0 0 0 0.3875 0.3 0.45 0.08125 0.65625 0.6 
0.23125 0.175 0.48125 0 0 0 0 0 0.55 
1.4375 0.525 0.25625 0.18125 0.4625 0.36875 0.0875 0.2375 0.525 
0 0 0 0 0 0.40625 0.2625 0.525 0.75 
0.26875 0.14375 0.1375 0.1375 0.1875 0.3875 0.8125 0 0 
0 0.325 0.225 1.26875 0.4 1.00625 0.3625 0.3 0.1625 
0.34375 0.24375 0.28125 0.23125 0.2375 0 0 0.65 0.21875 
0 0 0 0.30625 0.225 0.325 0.3875 0.49375 0.5 
0.14375 0.4875 0 0.23125 0.54375 0.1375 0.63125 0 0 
0.3625 0.06875 0.40625 0.14375 0.60625 0.2375 0.3375 0.74375 0.46875 
0.6 0.475 0.25625 0.29375 0 0 0.3875 0.04375 0.2125 
0.25 0.525 0.1625 0.56875 0.4125 0.2875 0.2 0.275 0.45 
0.18125 0.25 0.2625 0.3375 0.5 0.08125 0.51875 0.6875 0.41875 
0.55 0.1625 0.29375 0.54375 0.21875 0.425 0.3375 0.15625 0.48125 
0.2875 0.43125 0.36875 0.5125 0.2625 0.58125 1.175 0.3625 0.575 
0.56875 0.20625 0.31875 0.53125 0.25625 0.275 0.23125 0.15625 0.19375 
0.28125 0.28125 0.275 0.55625 0.475 0.66875 0.5875 0.29375 0.71875 
0.4375 0.36875 0.1875 0.28125 0.1625 0.20625 0.7125 0.3375 0.28125 
0.7375 1.11875 0.575 0.20625 0.2875 0.4125 0.1875 0.575 0.41875 
0.16875 0.275 0.175 0.3625 0.2125 0.4 0.6375 0.825 0.49375 
0.35625 0.36875 0.4875 0.46875 0.58125 0.36875 0.39375 0.35 0.28125 
0.3 0.49375 0.2625 0.525 0.7125 0.4 0.50625 0.6 0.5 
0.4625 0.98125 0.375 0.51875 0.475 0.2625 0.24375 0.3375 0.40625 
0.5375 0.4 0.85625 0.50625 0.64375 0.175 0.54375 0.86875 0.5125 

COSALPHA 1 225 float
0.966813 0.965015 0.963177 0.961305 0.959397 0.957451 0.955471 0.953458 0.951413 
0.949331 0.947223 0.945081 0.942915 0.940716 0.938493 0.966335 0.964517 0.962655 
0.960761 0.958825 0.956854 0.954851 0.952809 0.950741 0.948635 0.946499 0.944332 
0.942138 0.939911 0.937663 0.965852 0.964006 0.962121 0.960197 0.958235 0.956243 
0.954213 0.952146 0.950046 0.947921 0.945753 0.943564 0.941341 0.939088 0.936809 
0.965354 0.963481 0.961568 0.959621 0.957636 0.955616 0.953557 0.951466 0.949338 
0.947184 0.944993 0.942772 0.940518 0.938246 0.935939 0.96484 0.962943 0.961011 
0.959035 0.957023 0.954976 0.95289 0.950772 0.948618 0.94643 0.944217 0.941963 
0.939686 0.937389 0.935051 0.964316 0.962397 0.960434 0.958428 0.956394 0.954315 
0.952205 0.950054 0.947875 0.945665 0.943416 0.941143 0.93884 0.936498 0.934134 
0.96378 0.961833 0.959838 0.957812 0.955748 0.953641 0.951499 0.949324 0.947117 
0.944873 0.942601 0.9403 0.937964 0.935593 0.933198 0.963233 0.961254 0.95924 
0.957183 0.955086 0.952955 0.950783 0.948582 0.946343 0.944068 0.941767 0.939431 
0.937068 0.934675 0.93225 0.962671 0.960668 0.958625 0.956538 0.95441 0.95225 
0.950051 0.947819 0.945548 0.943251 0.940915 0.938547 0.936153 0.933729 0.931283 
0.962095 0.960063 0.957988 0.955873 0.953719 0.951526 0.949298 0.947034 0.944737 
0.942406 0.940038 0.937646 0.935216 0.932766 0.930284 0.961505 0.95944 0.957335 
0.955193 0.95301 0.950787 0.948527 0.946232 0.943905 0.941536 0.939141 0.936717 
0.934259 0.931772 0.929257 0.960896 0.958803 0.95667 0.954497 0.95228 0.95003 
0.947738 0.94541 0.943045 0.940653 0.938224 0.935766 0.933279 0.930761 0.928213 
0.960277 0.958151 0.955984 0.953776 0.951532 0.949249 0.946928 0.944567 0.942172 
0.939746 0.93729 0.934793 0.932274 0.929723 0.927148 0.959636 0.957482 0.955283 
0.953044 0.950763 0.948445 0.946093 0.943701 0.941279 0.938811 0.936319 0.933797 
0.93124 0.92865 0.926043 0.958977 0.956795 0.954565 0.952292 0.94998 0.947626 
0.945241 0.942815 0.940359 0.93786 0.935333 0.932773 0.930185 0.927566 0.924917 

COSALPHA_U 1 225 float
0.966805 0.965008 0.963173 0.9613 0.959392 0.957447 0.955467 0.953455 0.951408 
0.949329 0.947221 0.945082 0.942913 0.940717 0.93849 0.966332 0.964511 0.962651 
0.960755 0.95882 0.956849 0.954847 0.952811 0.950736 0.94863 0.946495 0.944329 
0.942134 0.939909 0.937656 0.965846 0.964 0.962115 0.960191 0.95823 0.956236 
0.954206 0.952142 0.950044 0.947913 0.945751 0.943558 0.941336 0.939084 0.936805 
0.965348 0.963477 0.961567 0.959618 0.95763 0.955611 0.953553 0.951456 0.949332 
0.947176 0.944988 0.942768 0.940517 0.938242 0.935936 0.964838 0.962942 0.961006 
0.959031 0.957019 0.954969 0.952884 0.950764 0.948612 0.946428 0.944212 0.941964 
0.939685 0.937379 0.935048 0.964311 0.962388 0.960427 0.958427 0.95639 0.954312 
0.952199 0.950056 0.947876 0.945659 0.943413 0.94114 0.938832 0.936495 0.934136 
0.963775 0.961825 0.959836 0.957808 0.955742 0.95364 0.9515 0.949325 0.947115 
0.94487 0.942594 0.940288 0.937954 0.935591 0.933198 0.963229 0.961252 0.959234 
0.957175 0.955079 0.952946 0.950779 0.948576 0.946337 0.944066 0.941762 0.939424 
0.93706 0.93467 0.932248 0.962669 0.960662 0.958618 0.956532 0.954408 0.952245 
0.950046 0.947813 0.945545 0.943242 0.940912 0.93855 0.936154 0.933729 0.931279 
0.962088 0.960056 0.957984 0.95587 0.953715 0.951525 0.949295 0.947029 0.944733 
0.942401 0.940036 0.937642 0.935217 0.932761 0.930279 0.961496 0.959435 0.957331 
0.955187 0.953003 0.950782 0.948523 0.946227 0.943898 0.941537 0.939141 0.936713 
0.934255 0.931769 0.929257 0.960892 0.958798 0.956662 0.95449 0.952277 0.950024 
0.947734 0.945407 0.943044 0.940651 0.938223 0.935762 0.933275 0.930758 0.928209 
0.96027 0.958148 0.955981 0.953775 0.951529 0.949243 0.946922 0.944563 0.942168 
0.939742 0.937283 0.934792 0.932269 0.929717 0.92714 0.959628 0.957475 0.955279 
0.95304 0.95076 0.948443 0.946087 0.943695 0.941269 0.938809 0.936318 0.933794 
0.931235 0.928648 0.926037 0.958975 0.956787 0.954559 0.952288 0.949974 0.947624 
0.945235 0.942811 0.940352 0.937856 0.935328 0.93277 0.930181 0.927563 0.924917 

COSALPHA_V 1 225 float
0.966812 0.965013 0.963178 0.961305 0.959394 0.957448 0.95547 0.953458 0.951407 
0.949331 0.94722 0.945083 0.942913 0.940713 0.93849 0.966335 0.964514 0.962654 
0.960756 0.958822 0.956853 0.954845 0.95281 0.950734 0.948631 0.946494 0.94433 
0.942135 0.939907 0.937656 0.965848 0.964002 0.962117 0.960194 0.958237 0.956242 
0.954207 0.952142 0.950047 0.947915 0.945752 0.943556 0.941339 0.939085 0.936806 
0.965351 0.963481 0.961568 0.959622 0.957636 0.955612 0.953557 0.951462 0.949341 
0.94718 0.94499 0.94277 0.940524 0.938245 0.935938 0.964839 0.962944 0.961006 
0.959035 0.95702 0.95497 0.952889 0.950769 0.948616 0.946429 0.944212 0.941967 
0.939687 0.937382 0.935046 0.964316 0.962392 0.960432 0.958429 0.95639 0.954315 
0.952203 0.950055 0.947873 0.945663 0.943418 0.941142 0.93883 0.936499 0.934133 
0.963782 0.961831 0.959844 0.957811 0.955746 0.953643 0.951502 0.949324 0.947115 
0.944874 0.942601 0.940295 0.937958 0.935595 0.933202 0.963232 0.961257 0.95924 
0.957181 0.955087 0.952956 0.950784 0.948582 0.946342 0.944068 0.941765 0.939428 
0.937067 0.934673 0.93225 0.962668 0.960666 0.958617 0.956532 0.95441 0.952249 
0.950048 0.947818 0.945547 0.943247 0.940911 0.938545 0.936153 0.93373 0.931275 
0.962092 0.960058 0.957981 0.95587 0.953716 0.951523 0.949294 0.947031 0.944733 
0.9424 0.940036 0.937642 0.935216 0.93276 0.930278 0.961503 0.959438 0.957335 
0.955191 0.953005 0.950783 0.948525 0.946228 0.9439 0.941535 0.939139 0.936714 
0.93426 0.931769 0.929257 0.960896 0.958802 0.956671 0.954491 0.952275 0.950023 
0.947734 0.945405 0.943045 0.940651 0.938222 0.935762 0.933276 0.930757 0.928211 
0.960271 0.958149 0.955985 0.953775 0.951531 0.949245 0.946922 0.944563 0.942171 
0.939742 0.937283 0.934793 0.932266 0.929717 0.92714 0.959634 0.957481 0.955281 
0.953044 0.950765 0.948446 0.946092 0.943702 0.941276 0.938812 0.936319 0.933798 
0.931238 0.928653 0.926042 0.95898 0.956794 0.95456 0.952292 0.949977 0.947629 
0.94524 0.942814 0.940354 0.937861 0.935333 0.932773 0.930183 0.927565 0.924919 

E 1 225 float
7.5624e-05 7.57647e-05 7.5909e-05 7.60569e-05 7.62082e-05 7.63629e-05 7.65211e-05 7.66826e-05 7.68474e-05 
7.70157e-05 7.71871e-05 7.73618e-05 7.75397e-05 7.77207e-05 7.79049e-05 7.50974e-05 7.52395e-05 7.53852e-05 
7.55344e-05 7.56871e-05 7.58433e-05 7.6003e-05 7.6166e-05 7.63324e-05 7.65022e-05 7.66752e-05 7.68515e-05 
7.7031e-05 7.72137e-05 7.73996e-05 7.45697e-05 7.47131e-05 7.48602e-05 7.50109e-05 7.51651e-05 7.53228e-05 
7.54839e-05 7.56485e-05 7.58164e-05 7.59878e-05 7.61624e-05 7.63403e-05 7.65215e-05 7.67059e-05 7.68935e-05 
7.40409e-05 7.41858e-05 7.43343e-05 7.44864e-05 7.4642e-05 7.48012e-05 7.49639e-05 7.513e-05 7.52995e-05 
7.54724e-05 7.56487e-05 7.58283e-05 7.60111e-05 7.61972e-05 7.63865e-05 7.35112e-05 7.36574e-05 7.38074e-05 
7.39609e-05 7.4118e-05 7.42787e-05 7.44429e-05 7.46106e-05 7.47817e-05 7.49563e-05 7.51342e-05 7.53154e-05 
7.54999e-05 7.56877e-05 7.58788e-05 7.29804e-05 7.31281e-05 7.32794e-05 7.34344e-05 7.35931e-05 7.37553e-05 
7.3921e-05 7.40903e-05 7.4263e-05 7.44392e-05 7.46188e-05 7.48017e-05 7.49879e-05 7.51775e-05 7.53702e-05 
7.24486e-05 7.25977e-05 7.27505e-05 7.29071e-05 7.30672e-05 7.32309e-05 7.33982e-05 7.35691e-05 7.37435e-05 
7.39213e-05 7.41025e-05 7.42872e-05 7.44751e-05 7.46664e-05 7.4861e-05 7.19159e-05 7.20664e-05 7.22207e-05 
7.23787e-05 7.25404e-05 7.27057e-05 7.28746e-05 7.30471e-05 7.32231e-05 7.34026e-05 7.35855e-05 7.37719e-05 
7.39616e-05 7.41546e-05 7.4351e-05 7.13821e-05 7.15341e-05 7.16899e-05 7.18495e-05 7.20127e-05 7.21796e-05 
7.23501e-05 7.25242e-05 7.27019e-05 7.28831e-05 7.30677e-05 7.32558e-05 7.34473e-05 7.36421e-05 7.38403e-05 
7.08475e-05 7.10009e-05 7.11582e-05 7.13193e-05 7.14841e-05 7.16526e-05 7.18248e-05 7.20005e-05 7.21799e-05 
7.23628e-05 7.25492e-05 7.2739e-05 7.29323e-05 7.31289e-05 7.33289e-05 7.03119e-05 7.04669e-05 7.06257e-05 
7.07883e-05 7.09547e-05 7.11248e-05 7.12986e-05 7.1476e-05 7.16571e-05 7.18417e-05 7.20299e-05 7.22215e-05 
7.24166e-05 7.2615e-05 7.28169e-05 6.97754e-05 6.99319e-05 7.00922e-05 7.02564e-05 7.04244e-05 7.05962e-05 
7.07717e-05 7.09508e-05 7.11336e-05 7.132e-05 7.15099e-05 7.17033e-05 7.19002e-05 7.21005e-05 7.23042e-05 
6.9238e-05 6.9396e-05 6.9558e-05 6.97238e-05 6.98934e-05 7.00668e-05 7.0244e-05 7.04248e-05 7.06094e-05 
7.07975e-05 7.09892e-05 7.11844e-05 7.13831e-05 7.15853e-05 7.17909e-05 6.86998e-05 6.88593e-05 6.90229e-05 
6.91903e-05 6.93616e-05 6.95366e-05 6.97155e-05 6.98981e-05 7.00844e-05 7.02743e-05 7.04679e-05 7.06649e-05 
7.08655e-05 7.10696e-05 7.12771e-05 6.81607e-05 6.83218e-05 6.8487e-05 6.86561e-05 6.8829e-05 6.90058e-05 
6.91864e-05 6.93707e-05 6.95588e-05 6.97505e-05 6.99459e-05 7.01449e-05 7.03473e-05 7.05533e-05 7.07627e-05 

F 1 225 float
0.000124701 0.000124615 0.000124528 0.000124437 0.000124345 0.00012425 0.000124152 0.000124053 0.000123951 
0.000123846 0.000123739 0.00012363 0.000123519 0.000123405 0.000123289 0.000125019 0.000124933 0.000124845 
0.000124755 0.000124663 0.000124568 0.00012447 0.000124371 0.000124269 0.000124164 0.000124057 0.000123948 
0.000123837 0.000123723 0.000123607 0.000125334 0.000125249 0.000125161 0.000125071 0.000124978 0.000124883 
0.000124786 0.000124686 0.000124584 0.00012448 0.000124373 0.000124264 0.000124152 0.000124038 0.000123922 
0.000125647 0.000125562 0.000125474 0.000125384 0.000125291 0.000125196 0.000125099 0.000124999 0.000124897 
0.000124793 0.000124686 0.000124577 0.000124465 0.000124351 0.000124235 0.000125958 0.000125872 0.000125785 
0.000125694 0.000125602 0.000125507 0.00012541 0.00012531 0.000125208 0.000125103 0.000124997 0.000124888 
0.000124776 0.000124662 0.000124546 0.000126266 0.000126181 0.000126093 0.000126003 0.00012591 0.000125815 
0.000125718 0.000125618 0.000125516 0.000125412 0.000125305 0.000125196 0.000125084 0.000124971 0.000124854 
0.000126572 0.000126487 0.000126399 0.000126309 0.000126216 0.000126121 0.000126024 0.000125924 0.000125822 
0.000125718 0.000125611 0.000125502 0.00012539 0.000125277 0.00012516 0.000126876 0.00012679 0.000126702 
0.000126612 0.00012652 0.000126425 0.000126327 0.000126228 0.000126126 0.000126021 0.000125915 0.000125805 
0.000125694 0.00012558 0.000125464 0.000127177 0.000127091 0.000127003 0.000126913 0.000126821 0.000126726 
0.000126628 0.000126529 0.000126427 0.000126322 0.000126216 0.000126107 0.000125995 0.000125881 0.000125765 
0.000127475 0.00012739 0.000127302 0.000127212 0.000127119 0.000127024 0.000126927 0.000126828 0.000126726 
0.000126621 0.000126514 0.000126405 0.000126294 0.00012618 0.000126064 0.000127771 0.000127686 0.000127598 
0.000127508 0.000127416 0.000127321 0.000127223 0.000127124 0.000127022 0.000126918 0.000126811 0.000126702 
0.00012659 0.000126477 0.000126361 0.000128065 0.00012798 0.000127892 0.000127802 0.000127709 0.000127615 
0.000127517 0.000127418 0.000127316 0.000127212 0.000127105 0.000126996 0.000126884 0.000126771 0.000126655 
0.000128357 0.000128271 0.000128183 0.000128093 0.000128001 0.000127906 0.000127809 0.000127709 0.000127607 
0.000127503 0.000127396 0.000127287 0.000127176 0.000127062 0.000126946 0.000128645 0.00012856 0.000128472 
0.000128382 0.00012829 0.000128195 0.000128098 0.000127998 0.000127896 0.000127792 0.000127685 0.000127577 
0.000127465 0.000127352 0.000127236 0.000128932 0.000128847 0.000128759 0.000128669 0.000128576 0.000128482 
0.000128384 0.000128285 0.000128183 0.000128079 0.000127972 0.000127863 0.000127752 0.000127638 0.000127522 

HGT_M 1 225 float
584.356 649.977 585.979 427.071 223.468 60.3438 0 0 0.116775 
0 0 7.38191 46.3954 111.467 173.372 765.734 867.481 745.099 
553.732 335.165 132.509 13.1067 0 0 0 5.25334 33.6113 
71.522 114.595 176.649 871.172 998.586 825.448 619.505 417.918 195.512 
35.5701 0 0 2.68837 39.1727 77.9914 81.459 82.7339 136.426 