# vtk DataFile Version 5.1
vtk output
ASCII
DATASET UNSTRUCTURED_GRID
POINTS 60 double
0 0 0 0.5 0 0 1 0 0 
0 0.3333 0 0.5 0.3333 0 1 0.3333 0 
0 0.6667 0 0.5 0.6667 0 1 0.6667 0 
0 1 0 0.5 1 0 1 1 0 
0 0 0.167373 0.5 0 0.167373 1 0 0.167373 
0 0.3333 0.167373 0.5 0.3333 0.167373 1 0.3333 0.167373 
0 0.6667 0.167373 0.5 0.6667 0.167373 1 0.6667 0.167373 
0 1 0.167373 0.5 1 0.167373 1 1 0.167373 
0 0 0.440718 0.5 0 0.440718 1 0 0.440718 
0 0.3333 0.440718 0.5 0.3333 0.440718 1 0.3333 0.440718 
0 0.6667 0.440718 0.5 0.6667 0.440718 1 0.6667 0.440718 
0 1 0.440718 0.5 1 0.440718 1 1 0.440718 
0 0 0.756819 0.5 0 0.756819 1 0 0.756819 
0 0.3333 0.756819 0.5 0.3333 0.756819 1 0.3333 0.756819 
0 0.6667 0.756819 0.5 0.6667 0.756819 1 0.6667 0.756819 
0 1 0.756819 0.5 1 0.756819 1 1 0.756819 
0 0 1 0.5 0 1 1 0 1 
0 0.3333 1 0.5 0.3333 1 1 0.3333 1 
0 0.6667 1 0.5 0.6667 1 1 0.6667 1 
0 1 1 0.5 1 1 1 1 1 

CELLS 25 192
OFFSETS vtktypeint64
0 8 16 24 32 40 48 56 64 
72 80 88 96 104 112 120 128 136 
144 152 160 168 176 184 192 
CONNECTIVITY vtktypeint64
0 1 4 3 12 13 16 15 1 
2 5 4 13 14 17 16 3 4 
7 6 15 16 19 18 4 5 8 
7 16 17 20 19 6 7 10 9 
18 19 22 21 7 8 11 10 19 
20 23 22 12 13 16 15 24 25 
28 27 13 14 17 16 25 26 29 
28 15 16 19 18 27 28 31 30 
16 17 20 19 28 29 32 31 18 
19 22 21 30 31 34 33 19 20 
23 22 31 32 35 34 24 25 28 
27 36 37 40 39 25 26 29 28 
37 38 41 40 27 28 31 30 39 
40 43 42 28 29 32 31 40 41 
44 43 30 31 34 33 42 43 46 
45 31 32 35 34 43 44 47 46 
36 37 40 39 48 49 52 51 37 
38 41 40 49 50 53 52 39 40 
43 42 51 52 55 54 40 41 44 
43 52 53 56 55 42 43 46 45 
54 55 58 57 43 44 47 46 55 
56 59 58 
CELL_TYPES 24
12
12
12
12
12
12
12
12
12
12
12
12
12
12
12
12
12
12
12
12
12
12
12
12

CELL_DATA 24
FIELD FieldData 28
Continuous%20global%20L2-projection%20eta^p 1 24 double
1.4593869674 1.2696121051 1.3621156832 1.3374758121 1.3360712393 2.0735204599 1.1789628453 1.0753676566 1.0875114286 
0 1.3374758121 1.0753676566 1.3356015828 1.3370121208 1.0622053566 1.6019538549 1.6072880578 1.3293473157 
1.5901630551 1.1353409976 1.2746141268 1.2748449401 1.2736405957 1.2219978394 
Continuous%20global%20L2-projection%20eta^s 1 24 double
1.4502869768 0.67832656177 0.3873296237 0.8235772131 0.82843391132 1.2761090579 0.3877919881 0.87710731774 0.57338540202 
0 0.8235772131 0.87710731774 0.82820735049 0.82296281815 0.36706182877 0.98826088505 0.99191165183 0.37776164331 
0.98402927991 0.57955711492 0.83395298117 0.83455740656 0.84040906154 1.2014576509 
Continuous%20global%20L2-projection%20eta^total 1 24 double
1.1582880309 1.2567783591 1.2861292535 1.2615655333 1.2604643981 2.0735204599 1.2056608104 1.0753676566 1.0250794085 
0 1.2615655333 1.0753676566 1.2597543958 1.2610417334 1.1069713498 1.5156565224 1.5230810577 1.2635596458 
1.4989105351 1.0999480735 1.2176277656 1.2178787365 1.2166030662 1.1924556542 
Continuous%20global%20L2-projection%20eta^u 1 24 double
1.0517642833 1.2462879845 1.256984427 1.1815450099 1.1790246298 2.0735204599 1.2143322931 1.0753676566 0.97806903535 
0 1.1815450099 1.0753676566 1.1780822919 1.1810173062 1.1228032899 1.4357255463 1.4438454493 1.2374594029 
1.415415983 1.0754459686 1.1542166769 1.1544265295 1.1515622451 1.1479795897 
Continuous%20global%20L2-projection%20|(u^*,p^*)-(u,p)| 1 24 double
6.1819131756 3.614207325 6.3782728492 3.892721296 6.6620235558 4.1937615237 7.5199644019 4.542041622 7.9844100002 
5.1538826947 8.2165211275 5.3295494055 7.623602749 4.1717488681 9.2157391777 5.913088867 10.472893903 7.1018167869 
6.3577262398 2.9410666371 8.7603464302 5.3863802795 11.002198884 7.4772363097 
Continuous%20global%20L2-projection%20|(u^*,p^*)-(u^h,p^h)| 1 24 double
0.90447074908 0.91174141627 0.90039813444 0.9262234564 1.0122974766 0.7987142577 1.0239791743 1.0741892477 0.95242209799 
1.0118738267 0.89184654347 1.2572866018 1.2042276139 1.5515823487 1.367416737 1.2662870866 1.4286970083 1.2743936778 
1.1900910476 1.5702672216 1.5327780176 1.4771655402 1.6316591832 1.1574420571 
Continuous%20global%20L2-projection%20|div%20u^*|_L2 1 24 double
0.90391757088 0.90949775778 0.89863574698 0.92085728274 1.0116806202 0.79672465397 1.0200497319 1.0486637594 0.93881192085 
0.92614756839 0.88658487014 1.234202742 1.1990906518 1.5311914013 1.3554993196 1.1755912918 1.424997274 1.2393412693 
1.1893919891 1.5684859205 1.5318231848 1.4688810175 1.6313491085 1.1522522911 
Continuous%20global%20L2-projection%20|p^*-p^h|_L2 1 24 double
0.1044139543 0.13520089496 0.18303301181 0.24230149942 0.1101209746 0.14926400862 0.33500828205 0.39257465293 0.62279189589 
0.81372120227 0.38526362594 0.54392827605 0.38742107515 0.39213668099 0.77067968762 1.0024104647 0.51214916698 0.76400803557 
0.146352822 0.12486432656 0.32350518645 0.42180455821 0.23716569961 0.36007874669 
Continuous%20global%20L2-projection%20|p^*-p|_L2 1 24 double
6.1798359678 3.5817330886 6.3730444549 3.8190755168 6.6601018118 4.1679701697 7.5119668984 4.4634520817 7.9734203789 
5.0908407535 8.209327964 5.2599546044 7.6129348086 4.0638985291 9.2047280164 5.8663882649 10.465620217 7.0328107429 
6.3534311301 2.8800413624 8.7541952843 5.3108800216 11.000284669 7.4494505647 
Continuous%20global%20L2-projection%20|s^*-s^h|_L2 1 24 double
1.5723829773 1.5864823048 1.563247668 1.6253792279 1.7472940044 1.391902062 1.7906619103 1.8781195827 1.6857984206 
1.8094259062 1.5662722586 2.1960898572 2.0964228431 2.6773515296 2.3861060286 2.247045153 2.4906282797 2.2490316745 
2.0629414607 2.7130365039 2.6602835077 2.576168013 2.8334790911 2.0228040889 
Continuous%20global%20L2-projection%20|sigma^*-sigma|_L2 1 24 double
10.663578467 6.2278078923 10.955689468 6.6645621329 11.489517383 7.2089543168 12.87783116 7.7577808819 13.486457758 
8.5136313646 14.044155733 8.9992353243 13.035854841 7.1510742093 15.530495574 9.7023974475 17.887206875 11.946795101 
10.955450534 5.0950538511 15.014986728 9.1687849998 18.953865087 12.805581588 
Continuous%20global%20L2-projection%20|u^*-u^h|_H1 1 24 double
0.031628483839 0.063923694586 0.056308034487 0.099557802358 0.035334174122 0.056340848431 0.089620833028 0.23278071129 0.16043699702 
0.40760191689 0.096734301802 0.2398190794 0.11111145287 0.2507203167 0.18013918809 0.47060397397 0.10275169354 0.29683743742 
0.040784773089 0.074773420296 0.054094192677 0.15622608466 0.031808427092 0.10948412378 
Continuous%20global%20L2-projection%20|u^*-u|_H1 1 24 double
0.16024331908 0.48340735385 0.25820324173 0.753618793 0.16000535974 0.46439248713 0.34672456372 0.84127142479 0.41877262699 
0.80364622364 0.34373509979 0.85847214589 0.40316556822 0.94245284421 0.45036733345 0.74169311398 0.39025655112 0.98761061563 
0.23365747355 0.59601570003 0.32822934082 0.89869122164 0.20522546968 0.64401018234 
p 1 24 double
-39.606163025 -17.999168396 -40.705505371 -19.275173187 -43.444084167 -23.10738945 -37.055713654 -18.20614624 -38.938278198 
-21.958440781 -38.766559601 -20.275436401 -34.544010162 -12.810712814 -42.78288269 -24.121444702 -48.215450287 -28.236404419 
-32.435779572 -7.9439940453 -46.369293213 -22.825998306 -59.868293762 -35.444908142 
|div%20u^h|_L2 1 24 double
0.098752062513 0.12391694235 0.19022820583 0.26064228181 0.12618100619 0.17993855602 0.30651741216 0.36347453633 0.59657360882 
0.85423939656 0.36206001642 0.54043406093 0.35343588749 0.31298184606 0.74988373584 1.0630681716 0.49316762663 0.80487878096 
0.1368961893 0.093042241473 0.3131280668 0.44072959708 0.23209779303 0.39144091568 
|e_u|_H1%20+%20|e_p|_L2 1 24 double
6.6164097198 3.0454163315 6.8033796401 3.3019882432 7.2571989924 3.8860286295 7.9178537541 3.9948317515 8.3237129361 
4.7673279167 8.2824765667 4.4315694733 7.9399431242 3.109402053 9.8304490291 5.5779989405 11.07377156 6.5685721421 
6.5342779695 1.7168849451 9.3416948956 4.6880021363 12.053841183 7.168188035 
|e|_H1|,%20e=u-u^h 1 24 double
0.15165123846 0.48800727534 0.23574722874 0.73277991491 0.15006858063 0.45591106352 0.37745930893 0.92710811606 0.44336273856 
0.86972268684 0.37462884891 0.9551416436 0.42716771242 1.011504788 0.43363936601 0.6740998418 0.40741315466 1.0705829231 
0.24493173052 0.6246641392 0.32445569354 0.92510294554 0.20141498693 0.68423047012 
|e|_L2,%20e=sigma-sigma^h 1 24 double
11.416675005 5.2508310682 11.685916839 5.6388450307 12.512415548 6.6631787036 13.581061898 6.8339411735 14.091601857 
7.8189558031 14.172006203 7.4641988235 13.607084463 5.3833659788 16.601066612 9.0617181287 18.928153916 11.000350613 
11.269487371 3.024374198 16.021605182 7.9621273701 20.769718194 12.254181202 
|e|_L2|,%20e=p-p^h 1 24 double
6.6146715325 3.0060621303 6.7992939172 3.219652148 7.2556472238 3.8591920931 7.9088515311 3.8857626361 8.3118966863 
4.6873231074 8.2739997162 4.3274140589 7.928444019 2.9402787607 9.8208800529 5.5371167211 11.06627449 6.4807400959 
6.5296858293 1.5992150036 9.3360586987 4.5958185963 12.052158282 7.135457124 
|e|_L2|,%20e=u-u^h 1 24 double
0.025092757002 0.083290442556 0.043173605612 0.13955969709 0.024830887967 0.077891833877 0.10653542118 0.30498118476 0.18343031744 
0.53042798138 0.10531151492 0.30755172974 0.13335261863 0.36302711736 0.22274535801 0.64410967861 0.12415836328 0.38093530842 
0.051713077097 0.13999581133 0.081438809924 0.25220763351 0.042525377963 0.15143831744 
|p^h|_L2 1 24 double
6.6146715325 3.0060621303 6.7992939172 3.219652148 7.2556472238 3.8591920931 7.9088515311 3.8857626361 8.3118966863 
4.6873231074 8.2739997162 4.3274140589 7.928444019 2.9402787607 9.8208800529 5.5371167211 11.06627449 6.4807400959 
6.5296858293 1.5992150036 9.3360586987 4.5958185963 12.052158282 7.135457124 
|p|_L2 1 24 double
0 0 0 0 0 0 0 0 0 
0 0 0 0 0 0 0 0 0 
0 0 0 0 0 0 
|s^h|_L2 1 24 double
11.415051864 5.2305318744 11.681624359 5.5998350901 12.511004317 6.6483326196 13.578761406 6.8153657837 14.085502153 
7.781307439 14.169755054 7.4448770986 13.611369928 5.4069972722 16.607153962 9.0868356187 18.931802195 11.011862274 
11.276120428 3.0862280281 16.028991211 8.0082501685 20.772790749 12.270448349 
|sigma|_L2 1 24 double
0.16701116764 0.16701116764 0.1670362241 0.1670362241 0.16701116764 0.16701116764 0.21343136459 0.21343136459 0.21346338541 
0.21346338541 0.21343136459 0.21343136459 0.22951718639 0.22951718639 0.22955162054 0.22955162054 0.22951718639 0.22951718639 
0.20131120373 0.20131120373 0.20134140617 0.20134140617 0.20131120373 0.20131120373 
|u^h|_H1 1 24 double
0.11718926518 0.43007010655 0.17464414695 0.65372879909 0.11701333425 0.3980564583 0.35616750081 0.89226910714 0.39192157398 
0.78076017721 0.35269872764 0.91666694792 0.46003607333 1.0425399255 0.4884471485 0.75390458673 0.44779057406 1.0997713738 
0.31205468791 0.69620135357 0.40552823817 1.0197867844 0.26921814972 0.75359655718 
|u^h|_L2 1 24 double
0.016840176707 0.070360015716 0.030451975317 0.12402812448 0.01693561992 0.064974935966 0.072694060639 0.25142875935 0.1307600149 
0.46567584126 0.071463944477 0.25377038765 0.1046554482 0.26416876993 0.13752871336 0.51736688152 0.10429354921 0.28155719824 
0.15178043358 0.12919384315 0.13462626852 0.15548155941 0.15621483418 0.13374683627 
|u|_H1 1 24 double
0.083505583819 0.083505583819 0.083518112049 0.083518112049 0.083505583819 0.083505583819 0.1067156823 0.1067156823 0.10673169271 
0.10673169271 0.1067156823 0.1067156823 0.11475859319 0.11475859319 0.11477581027 0.11477581027 0.11475859319 0.11475859319 
0.10065560186 0.10065560186 0.10067070309 0.10067070309 0.10065560186 0.10065560186 
|u|_L2 1 24 double
0.01613877619 0.01613877619 0.016141197469 0.016141197469 0.01613877619 0.01613877619 0.067042663005 0.067042663005 0.067052721325 
0.067052721325 0.067042663005 0.067042663005 0.13901433342 0.13901433342 0.13903518956 0.13903518956 0.13901433342 0.13901433342 
0.17739745006 0.17739745006 0.17742406476 0.17742406476 0.17739745006 0.17739745006 
POINT_DATA 60
FIELD FieldData 50
Continuous%20global%20L2-projection%20p-rec 1 60 double
-45.803674202 -28.90491475 -12.006155298 -46.189798883 -28.863065611 -11.536332338 -49.148493306 -32.601139206 -16.053785106 
-51.721950891 -36.38218366 -21.042416429 -43.065159518 -28.304971594 -13.544783671 -43.346591528 -29.268257984 -15.18992444 
-43.765065274 -29.842672447 -15.920279619 -43.902232587 -29.45397289 -15.005713194 -39.759796647 -24.210495282 -8.6611939171 
-42.534136714 -28.987579233 -15.441021751 -46.170475739 -33.177618843 -20.184761947 -47.03356589 -32.59183185 -18.150097809 
-36.995535066 -18.967964695 -0.94039432324 -43.711098105 -27.246436822 -10.781775539 -56.127090058 -40.248917012 -24.370743966 
-61.831244759 -44.976826855 -28.122408952 -35.232927566 -16.342864372 2.547198822 -44.197327537 -25.577578787 -6.9578300377 
-62.660243057 -43.793414584 -24.926586111 -72.164298954 -52.78000217 -33.395705386 
Continuous%20global%20L2-projection%20sigma_xx 1 60 double
45.803674202 28.90491475 12.006155298 46.189798883 28.863065611 11.536332338 49.148493306 32.601139206 16.053785106 
51.721950891 36.38218366 21.042416429 43.065159518 28.304971594 13.544783671 42.062099452 27.159597644 12.257095835 
42.463036082 27.894757846 13.326479611 43.902232587 29.45397289 15.005713194 39.759796647 24.210495282 8.6611939171 
38.507051201 24.585966772 10.664882343 42.277571845 28.53822462 14.798877394 47.03356589 32.59183185 18.150097809 
36.995535066 18.967964695 0.94039432324 41.156847776 24.505148458 7.8534491413 54.618828824 36.992942421 19.367056018 
61.831244759 44.976826855 28.122408952 35.232927566 16.342864372 -2.547198822 44.197327537 25.577578787 6.9578300377 
62.660243057 43.793414584 24.926586111 72.164298954 52.78000217 33.395705386 
Continuous%20global%20L2-projection%20sigma_xy 1 60 double
-9.6989114211e-16 1.7797259073e-15 7.6170904144e-16 -1.990670001e-16 1.6313524176e-16 3.9004667268e-16 -4.6836125888e-16 1.3024478688e-15 1.0285077479e-15 
-9.8706469765e-16 2.0133113247e-15 -4.84412367e-15 8.059979187e-16 -2.832084188 -7.7850457204 1.4019003074e-15 -1.3530001941 -3.4097499212 
4.5796456986e-16 1.4158296631 3.8919389141 2.3986042062e-15 2.7064063962 6.8205230394 0 -7.4805577635 -15.562547211 
-1.3783022465e-15 -3.7244285669 -8.493380229 0 3.7397177749 7.780106279 -8.881784197e-16 7.4499747596 16.98930915 
0 -5.025922167 -9.2523411331 -4.7051540483e-16 -1.7240169827 -6.169380825 -2.9559286005e-16 2.5125840956 4.6254765605 
3.171626889e-16 3.448551308 12.340612957 -1.2473246376e-16 1.7101875345e-15 -1.6101186044e-15 1.0143519091e-16 -4.5978033666e-16 1.2958506327e-15 
-4.8407246165e-16 4.2464958528e-16 -1.5319307551e-15 1.3101392836e-16 -2.1232479264e-16 -1.6765252766e-15 
Continuous%20global%20L2-projection%20sigma_xz 1 60 double
1.0002807767 1.0002807767 1.0002807767 1.0002807767 -3.0257247574 -11.83678406 1.0002807767 -2.7216060983 -10.090271292 
1.0002807767 1.0002807767 1.0002807767 0.99992027486 0.99992027486 0.99992027486 0.99992027486 -4.9217714514 -11.121630691 
0.99992027486 -5.1545855674 -11.733445568 0.99992027486 0.99992027486 0.99992027486 0.99988596581 0.99988596581 0.99988596581 
0.99988596581 -0.22366898512 -0.36060299023 0.99988596581 0.39679322888 -2.0668303141 0.99988596581 0.99988596581 0.99988596581 
1.0000626108 1.0000626108 1.0000626108 1.0000626108 5.6663974911 10.551930336 1.0000626108 5.8498566579 11.034044777 
1.0000626108 1.0000626108 1.0000626108 1.0000826677 1.0000826677 1.0000826677 1.0000826677 6.7368014677 13.133050572 
1.0000826677 5.0235548357 16.066697248 1.0000826677 1.0000826677 1.0000826677 
Continuous%20global%20L2-projection%20sigma_yx 1 60 double
-1.5532869675e-17 -5.8280306633e-17 6.4362179565e-17 -3.1924228629e-17 1.3845714067e-16 -1.8130598625e-16 -1.8325499802e-17 7.4014974165e-18 4.5545200464e-33 
-8.7562987283e-18 -2.7970503377e-17 7.4334203167e-18 5.5972077688e-17 8.95553243e-17 -7.8360908763e-17 -0.065298616886 0.07569026947 0.21667915583 
-0.0054567977786 0.061213776469 0.12788435072 1.7859250131e-17 6.7149968835e-17 -2.4172070382e-17 -2.3936504234e-17 -3.8936188609e-16 2.1613895916e-16 
1.0269286335 0.55295449495 0.078980356455 0.85830838978 0.34357151389 -0.171165362 8.6123079478e-17 -7.4748382914e-17 6.1105121426e-18 
-5.4541049124e-16 4.4417441289e-16 -2.0507019146e-16 0.65421426296 0.27414917946 -0.10591590405 0.67218881845 0.1837580204 -0.30467277765 
3.8984580511e-16 -1.4536623241e-16 1.71545751e-16 1.6857368939e-16 -1.7159005008e-16 6.7251806046e-17 -1.9321281501e-16 2.3011275672e-16 -1.2968142489e-16 
1.3071198853e-16 -1.8503743541e-16 6.0445562235e-17 -1.3949891101e-16 4.8541952572e-17 -2.7403991678e-17 
Continuous%20global%20L2-projection%20sigma_yy 1 60 double
45.803674202 28.90491475 12.006155298 46.189798883 28.863065611 11.536332338 49.148493306 32.601139206 16.053785106 
51.721950891 36.38218366 21.042416429 43.065159518 28.250983176 13.834674649 43.346591528 29.293866136 15.291423049 
43.765065274 29.869662606 15.775355875 43.902232587 29.402748901 14.802685519 39.759796647 25.884102764 10.903330937 
42.534136714 29.550973037 15.933835958 46.170475739 32.340940638 19.063861617 47.03356589 31.464875177 17.164321514 
36.995535066 19.928522439 2.0359215021 43.711098105 27.699425342 11.058310597 56.127090058 39.76871019 23.823062551 
61.831244759 44.070713883 27.569255854 35.232927566 16.342864372 -2.547198822 44.197327537 25.577578787 6.9578300377 
62.660243057 43.793414584 24.926586111 72.164298954 52.78000217 33.395705386 
Continuous%20global%20L2-projection%20sigma_yz 1 60 double
1.5048874955e-16 -6.6244918587e-17 1.3026697395e-16 -1.7922142929e-16 -0.7935753614 -0.20995645602 3.4891975859e-16 -0.45899368104 0.0097622476412 
-1.5096895721e-16 1.4730718514e-16 -3.6942394523e-16 9.9150537618e-17 -1.9830107524e-16 1.5672181753e-16 1.4019003074e-16 1.4231250894 1.7765871937 
-5.3429199817e-16 1.0682509787 1.077672764 2.9337956533e-16 -6.2064460559e-17 5.6002460921e-16 3.8456598064e-16 -6.2959696429e-16 1.7904907974e-16 
-4.1349067395e-16 0.66522143632 0.46847800108 2.2512784686e-16 0.60481135446 0.28967318171 -1.5662691732e-16 2.5061394883e-17 -4.4580905001e-16 
-3.3353516149e-16 8.7127450284e-16 3.8117946805e-16 2.3525770241e-16 -1.121432616 -1.3999632492 -4.4338929007e-16 -0.84178931178 -0.84921374512 
2.9073246483e-16 -5.8146492966e-16 -6.8618300401e-16 2.8310653581e-16 -3.7007434154e-16 -7.5865240016e-16 -4.18183335e-16 -1.0662346853 -0.99103403286 
1.3956790344e-15 -1.1500878096 -0.70885517279 -8.3275279823e-16 1.1580049818e-15 3.1620172643e-17 
Continuous%20global%20L2-projection%20sigma_zx 1 60 double
2.9556920867e-17 -4.5730677735e-17 6.4454059454e-17 -7.185928725e-17 1.4470782212e-16 -2.665536547e-16 -9.3018842234e-17 -2.3026880851e-17 8.059408298e-17 
1.0290701863e-17 1.7265592136e-17 -5.2227201774e-17 2.7986038844e-18 1.1194415538e-17 -3.9180454381e-17 -0.18720693141 0.12579883635 0.43880460411 
-0.43806637824 0.00062048435211 0.43930734694 -7.788449527e-17 -6.8476289506e-18 -6.2235922822e-18 7.3594578864e-18 -4.613321807e-17 -4.6889665806e-18 
-0.11946141347 -0.070459075272 -0.021456737071 0.34777903557 -0.018701553345 -0.38518214226 1.992001998e-17 1.2630700746e-17 1.5212064108e-16 
-7.8541347579e-17 1.0603165019e-16 -5.3015825096e-17 0.021391309798 -0.15515564382 -0.33170259744 0.70241634548 -0.1043908298 -0.91119800508 
-6.6075560188e-17 -2.6430224075e-17 1.3710764509e-51 7.8465798394e-17 -9.4317183482e-17 1.2130625942e-16 -1.1464178249e-16 1.1347241991e-16 -1.772759697e-16 
-6.3047259999e-17 1.6447772037e-17 8.059408298e-17 -1.3744488661e-17 2.0084637399e-18 -3.880566035e-17 
Continuous%20global%20L2-projection%20sigma_zy 1 60 double
8.2769849597e-20 4.4338239795e-17 -4.4854680765e-17 9.3721832941e-17 -1.6542892241e-16 1.6278005246e-16 -9.1589990936e-17 5.9572675552e-17 -6.0217167084e-17 
1.1055800524e-16 -1.0380120608e-16 3.936044208e-17 -1.4692670393e-17 -0.023817741011 0.60313820674 -1.4019003074e-16 -0.32532435986 -0.073973637255 
1.5265485662e-16 0.011907083968 -0.30152386276 -1.3325578923e-16 0.65074634299 0.1479694725 1.9428902931e-16 -0.38288715506 -0.3157903328 
-6.8915112325e-17 0.30165503717 -0.0026144418786 -1.1256392343e-16 0.19141485767 0.15787147938 1.6653345369e-16 -0.60340059492 0.0052296682984 
1.7017014989e-16 -0.34997577812 -0.61954646184 -1.1762885121e-16 0.53137515946 -0.15744754794 0 0.17496163783 0.30972675955 
0 -1.0629097739 0.3149423427 -8.1318278378e-17 1.9843281262e-16 -5.9632829e-17 8.8621688447e-17 -2.6791283705e-17 1.7495214077e-17 
-7.02445006e-17 -5.9107232097e-17 -5.6032403507e-18 7.2129684454e-17 1.7758335267e-16 -1.5702096902e-17 
Continuous%20global%20L2-projection%20sigma_zz 1 60 double
45.803674202 28.90491475 12.006155298 46.189798883 28.560097778 12.792916964 49.148493306 31.100867944 16.049239952 
51.721950891 36.38218366 21.042416429 43.065159518 28.304971594 13.544783671 43.346591528 29.131496659 14.931576676 
43.765065274 30.22776433 15.940491504 43.902232587 29.45397289 15.005713194 39.759796647 24.210495282 8.6611939171 
42.534136714 29.048177064 14.731374218 46.170475739 34.092577452 19.917117008 47.03356589 32.59183185 18.150097809 
36.995535066 18.967964695 0.94039432324 43.711098105 27.354205712 10.985355401 56.127090058 39.94546189 24.354816858 
61.831244759 44.976826855 28.122408952 35.232927566 16.342864372 -2.547198822 44.197327537 25.639218151 7.8130760663 
62.660243057 42.608237694 25.57845649 72.164298954 52.78000217 33.395705386 
Continuous%20global%20L2-projection%20u_x,x 1 60 double
4.715538995e-16 -2.7875343453e-17 -6.3879661267e-16 -2.9672062179e-16 5.3933317188e-16 1.4798911927e-15 1.1167645365e-15 -8.2238860183e-16 -1.6118816596e-16 
-5.7601687098e-16 -1.8417018372e-17 7.0179416001e-16 -8.6356919861e-16 6.5247450561e-16 9.4033090515e-16 -1.2844920754 -2.1086603403 -2.9328286052 
-1.3020291924 -1.9479146004 -2.5938000083 8.2341283002e-16 6.1520301894e-16 -2.0085687639e-15 1.1298324411e-15 -7.4207283397e-17 3.8160782292e-16 
-4.0270855129 -4.4016124606 -4.7761394083 -3.8929038942 -4.6393942237 -5.3858845532 -1.5487592637e-16 -3.8482029831e-16 -5.6120286827e-16 
-5.9317564163e-16 1.7308957629e-15 -2.7713535602e-15 -2.5542503297 -2.7412883639 -2.9283263981 -1.5082612336 -3.2559745908 -5.003687948 
1.0043485149e-15 -1.3743716519e-15 -1.6468392096e-15 8.2654477435e-16 -4.0346106765e-16 1.1151846103e-15 -1.3658883529e-15 1.6863767083e-15 -2.5405476678e-15 
1.1287006986e-15 -1.1973978043e-15 3.2237633192e-16 -1.0202311937e-15 1.193297902e-15 5.5123906188e-16 
Continuous%20global%20L2-projection%20u_x,y 1 60 double
-9.6989114211e-16 1.7797259073e-15 7.6170904144e-16 -1.990670001e-16 1.6313524176e-16 3.9004667268e-16 -4.6836125888e-16 1.3024478688e-15 1.0285077479e-15 
-9.8706469765e-16 2.0133113247e-15 -4.84412367e-15 8.059979187e-16 -2.832084188 -7.7850457204 1.4019003074e-15 -1.3530001941 -3.4097499212 
4.5796456986e-16 1.4158296631 3.8919389141 2.3986042062e-15 2.7064063962 6.8205230394 0 -7.4805577635 -15.562547211 
-1.3783022465e-15 -3.7244285669 -8.493380229 0 3.7397177749 7.780106279 -8.881784197e-16 7.4499747596 16.98930915 
0 -5.025922167 -9.2523411331 -4.7051540483e-16 -1.7240169827 -6.169380825 -2.9559286005e-16 2.5125840956 4.6254765605 
3.171626889e-16 3.448551308 12.340612957 -1.2473246376e-16 1.7101875345e-15 -1.6101186044e-15 1.0143519091e-16 -4.5978033666e-16 1.2958506327e-15 
-4.8407246165e-16 4.2464958528e-16 -1.5319307551e-15 1.3101392836e-16 -2.1232479264e-16 -1.6765252766e-15 
Continuous%20global%20L2-projection%20u_x,z 1 60 double
1.0002807767 1.0002807767 1.0002807767 1.0002807767 -3.0257247574 -11.83678406 1.0002807767 -2.7216060983 -10.090271292 
1.0002807767 1.0002807767 1.0002807767 0.99992027486 0.99992027486 0.99992027486 0.99992027486 -4.9217714514 -11.121630691 
0.99992027486 -5.1545855674 -11.733445568 0.99992027486 0.99992027486 0.99992027486 0.99988596581 0.99988596581 0.99988596581 
0.99988596581 -0.22366898512 -0.36060299023 0.99988596581 0.39679322888 -2.0668303141 0.99988596581 0.99988596581 0.99988596581 
1.0000626108 1.0000626108 1.0000626108 1.0000626108 5.6663974911 10.551930336 1.0000626108 5.8498566579 11.034044777 
1.0000626108 1.0000626108 1.0000626108 1.0000826677 1.0000826677 1.0000826677 1.0000826677 6.7368014677 13.133050572 
1.0000826677 5.0235548357 16.066697248 1.0000826677 1.0000826677 1.0000826677 
Continuous%20global%20L2-projection%20u_y,x 1 60 double
-1.5532869675e-17 -5.8280306633e-17 6.4362179565e-17 -3.1924228629e-17 1.3845714067e-16 -1.8130598625e-16 -1.8325499802e-17 7.4014974165e-18 4.5545200464e-33 
-8.7562987283e-18 -2.7970503377e-17 7.4334203167e-18 5.5972077688e-17 8.95553243e-17 -7.8360908763e-17 -0.065298616886 0.07569026947 0.21667915583 
-0.0054567977786 0.061213776469 0.12788435072 1.7859250131e-17 6.7149968835e-17 -2.4172070382e-17 -2.3936504234e-17 -3.8936188609e-16 2.1613895916e-16 
1.0269286335 0.55295449495 0.078980356455 0.85830838978 0.34357151389 -0.171165362 8.6123079478e-17 -7.4748382914e-17 6.1105121426e-18 
-5.4541049124e-16 4.4417441289e-16 -2.0507019146e-16 0.65421426296 0.27414917946 -0.10591590405 0.67218881845 0.1837580204 -0.30467277765 
3.8984580511e-16 -1.4536623241e-16 1.71545751e-16 1.6857368939e-16 -1.7159005008e-16 6.7251806046e-17 -1.9321281501e-16 2.3011275672e-16 -1.2968142489e-16 
1.3071198853e-16 -1.8503743541e-16 6.0445562235e-17 -1.3949891101e-16 4.8541952572e-17 -2.7403991678e-17 
Continuous%20global%20L2-projection%20u_y,y 1 60 double
4.1853091707e-17 -2.7577641161e-16 3.8031479199e-16 6.9673466145e-17 1.4075301805e-17 -1.1025165856e-16 -1.7218315149e-16 2.5762612232e-16 -1.0062742815e-16 
1.5490227362e-16 -2.6296500997e-16 2.0412586228e-16 -7.5562304878e-17 -0.053988418477 0.28989097788 -1.5333284613e-16 0.025608152265 0.10149860883 
3.4347342739e-16 0.026990159638 -0.1449237446 -3.081540126e-16 -0.05122398902 -0.20302767534 1.1102230246e-16 1.673607482 2.24213702 
3.1011800546e-16 0.56339380464 0.49281420606 -6.0034092495e-16 -0.83667820587 -1.1209003302 5.5511151231e-16 -1.1269566724 -0.98577629571 
-1.3613611991e-16 0.96055774392 1.0955271788 -3.1367693655e-16 0.45298852002 0.27653505732 2.9559286005e-16 -0.48020682178 -0.54768141536 
7.9290672226e-17 -0.90611297275 -0.55315309723 -1.3370095617e-16 -8.5314933657e-18 -2.408135429e-16 2.6740191234e-16 -4.2702622312e-16 3.7060478333e-16 
-1.670528332e-16 1.7345009974e-16 -5.0319104169e-16 -1.1076261271e-16 5.7940876491e-16 2.9550915922e-17 
Continuous%20global%20L2-projection%20u_y,z 1 60 double
1.5048874955e-16 -6.6244918587e-17 1.3026697395e-16 -1.7922142929e-16 -0.7935753614 -0.20995645602 3.4891975859e-16 -0.45899368104 0.0097622476412 
-1.5096895721e-16 1.4730718514e-16 -3.6942394523e-16 9.9150537618e-17 -1.9830107524e-16 1.5672181753e-16 1.4019003074e-16 1.4231250894 1.7765871937 
-5.3429199817e-16 1.0682509787 1.077672764 2.9337956533e-16 -6.2064460559e-17 5.6002460921e-16 3.8456598064e-16 -6.2959696429e-16 1.7904907974e-16 
-4.1349067395e-16 0.66522143632 0.46847800108 2.2512784686e-16 0.60481135446 0.28967318171 -1.5662691732e-16 2.5061394883e-17 -4.4580905001e-16 
-3.3353516149e-16 8.7127450284e-16 3.8117946805e-16 2.3525770241e-16 -1.121432616 -1.3999632492 -4.4338929007e-16 -0.84178931178 -0.84921374512 
2.9073246483e-16 -5.8146492966e-16 -6.8618300401e-16 2.8310653581e-16 -3.7007434154e-16 -7.5865240016e-16 -4.18183335e-16 -1.0662346853 -0.99103403286 
1.3956790344e-15 -1.1500878096 -0.70885517279 -8.3275279823e-16 1.1580049818e-15 3.1620172643e-17 
Continuous%20global%20L2-projection%20u_z,x 1 60 double
2.9556920867e-17 -4.5730677735e-17 6.4454059454e-17 -7.185928725e-17 1.4470782212e-16 -2.665536547e-16 -9.3018842234e-17 -2.3026880851e-17 8.059408298e-17 
1.0290701863e-17 1.7265592136e-17 -5.2227201774e-17 2.7986038844e-18 1.1194415538e-17 -3.9180454381e-17 -0.18720693141 0.12579883635 0.43880460411 
-0.43806637824 0.00062048435211 0.43930734694 -7.788449527e-17 -6.8476289506e-18 -6.2235922822e-18 7.3594578864e-18 -4.613321807e-17 -4.6889665806e-18 
-0.11946141347 -0.070459075272 -0.021456737071 0.34777903557 -0.018701553345 -0.38518214226 1.992001998e-17 1.2630700746e-17 1.5212064108e-16 
-7.8541347579e-17 1.0603165019e-16 -5.3015825096e-17 0.021391309798 -0.15515564382 -0.33170259744 0.70241634548 -0.1043908298 -0.91119800508 
-6.6075560188e-17 -2.6430224075e-17 1.3710764509e-51 7.8465798394e-17 -9.4317183482e-17 1.2130625942e-16 -1.1464178249e-16 1.1347241991e-16 -1.772759697e-16 
-6.3047259999e-17 1.6447772037e-17 8.059408298e-17 -1.3744488661e-17 2.0084637399e-18 -3.880566035e-17 
Continuous%20global%20L2-projection%20u_z,y 1 60 double
8.2769849597e-20 4.4338239795e-17 -4.4854680765e-17 9.3721832941e-17 -1.6542892241e-16 1.6278005246e-16 -9.1589990936e-17 5.9572675552e-17 -6.0217167084e-17 
1.1055800524e-16 -1.0380120608e-16 3.936044208e-17 -1.4692670393e-17 -0.023817741011 0.60313820674 -1.4019003074e-16 -0.32532435986 -0.073973637255 
1.5265485662e-16 0.011907083968 -0.30152386276 -1.3325578923e-16 0.65074634299 0.1479694725 1.9428902931e-16 -0.38288715506 -0.3157903328 
-6.8915112325e-17 0.30165503717 -0.0026144418786 -1.1256392343e-16 0.19141485767 0.15787147938 1.6653345369e-16 -0.60340059492 0.0052296682984 
1.7017014989e-16 -0.34997577812 -0.61954646184 -1.1762885121e-16 0.53137515946 -0.15744754794 0 0.17496163783 0.30972675955 
0 -1.0629097739 0.3149423427 -8.1318278378e-17 1.9843281262e-16 -5.9632829e-17 8.8621688447e-17 -2.6791283705e-17 1.7495214077e-17 
-7.02445006e-17 -5.9107232097e-17 -5.6032403507e-18 7.2129684454e-17 1.7758335267e-16 -1.5702096902e-17 
Continuous%20global%20L2-projection%20u_z,z 1 60 double
-1.4769118755e-17 6.4519329675e-17 1.8978494009e-16 1.5930793714e-16 -0.302967833 1.2565846255 -2.5375982443e-16 -1.5002712619 -0.0045451538461 
2.7474144435e-16 -2.9572306427e-16 2.0814317293e-16 6.5567291005e-17 -4.7176465479e-17 9.7951135953e-17 -1.3142815382e-16 -0.13676132534 -0.25834776427 
0 0.38509188279 0.020211884727 3.5311941302e-17 1.0843858418e-16 -4.3660747589e-17 3.7862110878e-17 -1.3023662378e-16 1.8160755972e-16 
-2.1535972602e-17 0.060597831228 -0.7096475336 -7.5042615619e-17 0.9149586083 -0.26764493897 2.0288951471e-16 -3.5709195154e-16 2.1525729995e-16 