# vtk DataFile Version 5.1
vtk output
ASCII
DATASET UNSTRUCTURED_GRID
POINTS 60 double
0 0 0 0.5 0 0 1 0 0 
0 0.3333 0 0.5 0.3333 0 1 0.3333 0 
0 0.6667 0 0.5 0.6667 0 1 0.6667 0 
0 1 0 0.5 1 0 1 1 0 
0 0 0.167373 0.5 0 0.167373 1 0 0.167373 
0 0.3333 0.167373 0.5 0.3333 0.167373 1 0.3333 0.167373 
0 0.6667 0.167373 0.5 0.6667 0.167373 1 0.6667 0.167373 
0 1 0.167373 0.5 1 0.167373 1 1 0.167373 
0 0 0.440718 0.5 0 0.440718 1 0 0.440718 
0 0.3333 0.440718 0.5 0.3333 0.440718 1 0.3333 0.440718 
0 0.6667 0.440718 0.5 0.6667 0.440718 1 0.6667 0.440718 
0 1 0.440718 0.5 1 0.440718 1 1 0.440718 
0 0 0.756819 0.5 0 0.756819 1 0 0.756819 
0 0.3333 0.756819 0.5 0.3333 0.756819 1 0.3333 0.756819 
0 0.6667 0.756819 0.5 0.6667 0.756819 1 0.6667 0.756819 
0 1 0.756819 0.5 1 0.756819 1 1 0.756819 
0 0 1 0.5 0 1 1 0 1 
0 0.3333 1 0.5 0.3333 1 1 0.3333 1 
0 0.6667 1 0.5 0.6667 1 1 0.6667 1 
0 1 1 0.5 1 1 1 1 1 

CELLS 25 192
OFFSETS vtktypeint64
0 8 16 24 32 40 48 56 64 
72 80 88 96 104 112 120 128 136 
144 152 160 168 176 184 192 
CONNECTIVITY vtktypeint64
0 1 4 3 12 13 16 15 1 
2 5 4 13 14 17 16 3 4 
7 6 15 16 19 18 4 5 8 
7 16 17 20 19 6 7 10 9 
18 19 22 21 7 8 11 10 19 
20 23 22 12 13 16 15 24 25 
28 27 13 14 17 16 25 26 29 
28 15 16 19 18 27 28 31 30 
16 17 20 19 28 29 32 31 18 
19 22 21 30 31 34 33 19 20 
23 22 31 32 35 34 24 25 28 
27 36 37 40 39 25 26 29 28 
37 38 41 40 27 28 31 30 39 
40 43 42 28 29 32 31 40 41 
44 43 30 31 34 33 42 43 46 
45 31 32 35 34 43 44 47 46 
36 37 40 39 48 49 52 51 37 
38 41 40 49 50 53 52 39 40 
43 42 51 52 55 54 40 41 44 
43 52 53 56 55 42 43 46 45 
54 55 58 57 43 44 47 46 55 
56 59 58 
CELL_TYPES 24
12
12
12
12
12
12
12
12
12
12
12
12
12
12
12
12
12
12
12
12
12
12
12
12

CELL_DATA 24
FIELD FieldData 28
Continuous%20global%20L2-projection%20eta^p 1 24 double
2.2127210351 1.2931652237 1.2319262472 1.1825268988 1.1824798348 2.0735204599 1.1735987323 1.0753676566 1.1071707883 
0 1.1825268988 1.0753676566 1.1816123814 1.1824627874 1.0861245388 1.2466400585 1.247317935 1.2433780558 
1.2474285935 1.1412031979 1.1537594342 1.1537698937 1.1527636152 1.0145664615 
Continuous%20global%20L2-projection%20eta^s 1 24 double
1.3528610054 0.92087495584 0.39359598519 0.8100402436 0.81518036026 1.2761090579 0.41390822884 0.87710731774 0.61729468622 
0 0.8100402436 0.87710731774 0.81383838814 0.80986587527 0.43719944217 0.87477236223 0.87623174651 0.36284620246 
0.86653106519 0.60391593221 0.82056319016 0.82076253735 0.82547880566 1.021672219 
Continuous%20global%20L2-projection%20eta^total 1 24 double
2.2849720584 1.4033457778 1.1468829887 1.1272903732 1.1285870584 2.0735204599 1.201589903 1.0753676566 1.0573434999 
0 1.1272903732 1.0753676566 1.1267015409 1.1272253245 1.1417471697 1.1726275729 1.1728928916 1.1751531128 
1.1745819947 1.11502851 1.1105695765 1.1105650732 1.1095147848 1.0769854943 
Continuous%20global%20L2-projection%20eta^u 1 24 double
2.3808428741 1.5333232706 1.1199942291 1.0734185472 1.0750707207 2.0735204599 1.2108784932 1.0753676566 1.0163142079 
0 1.0734185472 1.0753676566 1.0722316526 1.0733610179 1.1612400396 1.0900199206 1.0890544572 1.1529759788 
1.0954692919 1.0969709321 1.0682232263 1.0681891765 1.0663154229 1.1425994349 
Continuous%20global%20L2-projection%20|(u^*,p^*)-(u,p)| 1 24 double
1.2349171929 0.80386079921 1.2067980951 0.76389379349 1.1680933664 0.79426736266 1.490765833 0.98709896712 1.4506989898 
0.98035220915 1.40907015 0.90542345738 1.4694020233 0.92168571713 1.5496703553 1.0550772241 1.625727979 1.09470125 
1.2057372119 0.7008603561 1.4042633467 0.9025374659 1.5863013761 1.1110471434 
Continuous%20global%20L2-projection%20|(u^*,p^*)-(u^h,p^h)| 1 24 double
0.15008666143 0.14231049288 0.16933171413 0.17943739337 0.13996345806 0.12638705554 0.18538217722 0.1706015478 0.15370104008 
0.15509906698 0.15703662159 0.22525353084 0.18728461117 0.22985880411 0.1675371955 0.16306388334 0.19576814312 0.2002940923 
0.16383140172 0.19168283065 0.19664028007 0.2067961531 0.192097403 0.15437487413 
Continuous%20global%20L2-projection%20|div%20u^*|_L2 1 24 double
0.15006722934 0.14209190741 0.16927786145 0.17904752152 0.13993871671 0.12622241916 0.18512064429 0.16788825865 0.15270247143 
0.14689932877 0.15668331222 0.22355375534 0.18686917235 0.2272959009 0.16630130713 0.15199512673 0.19543390544 0.19727693739 
0.16374070126 0.19126005172 0.19648964215 0.20533224917 0.19205863464 0.15355607465 
Continuous%20global%20L2-projection%20|p^*-p^h|_L2 1 24 double
0.017600474879 0.025535218937 0.028459920612 0.040247130237 0.015469591129 0.02224686054 0.048156315524 0.073266576788 0.081400024825 
0.12507869801 0.04553374184 0.066310657078 0.051627012049 0.072230765174 0.093852273295 0.1446669719 0.056615655403 0.088937276952 
0.018732665266 0.021693796872 0.03784097618 0.055705779435 0.025517054727 0.042026994525 
Continuous%20global%20L2-projection%20|p^*-p|_L2 1 24 double
1.2347530386 0.80103842623 1.2063546625 0.7566870006 1.1679093689 0.79159161262 1.4902069478 0.98063378841 1.449852022 
0.97471924873 1.4084804176 0.89861449691 1.4686236982 0.91285920664 1.5487162374 1.0503351037 1.6250623017 1.0872206676 
1.2053913129 0.69588814444 1.4036660434 0.89421569315 1.5860876852 1.1077046898 
Continuous%20global%20L2-projection%20|s^*-s^h|_L2 1 24 double
0.26117306356 0.24780277923 0.29490695449 0.31323217683 0.24271180598 0.21912171209 0.32428327159 0.30066741867 0.27297171926 
0.27926015253 0.27540127209 0.39266699098 0.32853546904 0.4000311916 0.299032136 0.29293143969 0.3435434215 0.35260213554 
0.28468618994 0.33326960835 0.34295965841 0.36222707246 0.33443228933 0.27004228248 
Continuous%20global%20L2-projection%20|sigma^*-sigma|_L2 1 24 double
2.1314762868 1.383042969 2.0762015893 1.3066524663 2.0164002233 1.367084454 2.5596361393 1.679593237 2.4678927025 
1.6315639151 2.4188962039 1.5406668004 2.5208513697 1.5695360759 2.6315520507 1.748890756 2.7884155329 1.857004467 
2.0809093779 1.2093803892 2.4140177468 1.5419296566 2.7366896412 1.9085321849 
Continuous%20global%20L2-projection%20|u^*-u^h|_H1 1 24 double
0.0024150811619 0.0078845564501 0.0042702497672 0.011822147682 0.0026315693806 0.0064489307625 0.0098437130787 0.030305456907 0.017491853561 
0.049762513839 0.010528066894 0.027620130854 0.012467477877 0.034229274908 0.020312240722 0.059053463061 0.011434791799 0.034634280498 
0.0054507743729 0.01272400033 0.0076954708644 0.024562499603 0.0038591576532 0.015878718531 
Continuous%20global%20L2-projection%20|u^*-u|_H1 1 24 double
0.02013471829 0.067302482949 0.032711931453 0.10468290623 0.020732069354 0.065141094747 0.040816928844 0.11279070847 0.049564839165 
0.10494207996 0.040762738363 0.11083150781 0.047819863678 0.12725026529 0.054371187818 0.099920562236 0.046518567375 0.12775776534 
0.028879177551 0.083336241757 0.040953456771 0.12227907215 0.026036720214 0.086116636535 
p 1 24 double
-7.8306531906 -4.3813881874 -7.792052269 -3.7350091934 -7.4142584801 -4.6313481331 -7.432849884 -4.2175226212 -7.0403327942 
-4.3037385941 -6.7876353264 -3.3816668987 -6.7063641548 -3.2818813324 -7.027572155 -4.4469771385 -7.4640159607 -4.2605867386 
-6.1935691833 -2.8096687794 -7.434677124 -3.790626049 -8.4508705139 -5.3065686226 
|div%20u^h|_L2 1 24 double
0.015903834177 0.025394204122 0.02687525064 0.041775207137 0.015712044585 0.026504378216 0.044822159434 0.0755541241 0.075918572358 
0.13632350087 0.041672318241 0.063734371785 0.04556340545 0.065494709422 0.085028362925 0.15569695067 0.051337222621 0.090669528502 
0.017933573457 0.021426035849 0.035589853214 0.058545761255 0.023876660486 0.044717738038 
|e_u|_H1%20+%20|e_p|_L2 1 24 double
1.3079580031 0.73502723667 1.3019409251 0.63280894999 1.2384356842 0.77638056297 1.5869778234 0.9085713263 1.5036315613 
0.92495885212 1.4493312135 0.73176286494 1.5400166088 0.76557826232 1.6139395032 1.0246842251 1.7137802266 0.98746070448 
1.2472068988 0.57252783425 1.4974736464 0.77390339709 1.7014569262 1.0722756208 
|e|_H1|,%20e=u-u^h 1 24 double
0.019905042674 0.069429843112 0.031698312642 0.10591801592 0.02062266986 0.066969073577 0.042698970119 0.12340557991 0.04837264621 
0.10750088752 0.04296368637 0.12061662574 0.049345662934 0.13684761937 0.049161807615 0.089011538893 0.047568138507 0.13723517598 
0.030460815517 0.088682696916 0.041142721766 0.12820684848 0.02621799879 0.092577240367 
|e|_L2,%20e=sigma-sigma^h 1 24 double
2.2581970048 1.2638546575 2.240980536 1.0798591918 2.13795015 1.3341979701 2.7271323994 1.5420601486 2.5618315486 
1.5277185119 2.4903383026 1.2420894379 2.6460485129 1.3033381001 2.7468768751 1.686184705 2.9426145722 1.6699656364 
2.1534558567 0.9883394398 2.5761936917 1.3188118126 2.9362093006 1.839680502 
|e|_L2|,%20e=p-p^h 1 24 double
1.3078065327 0.73174075706 1.301554989 0.62388183264 1.2382639659 0.77348685945 1.5864032936 0.90015160824 1.5028532727 
0.91869061022 1.4486942701 0.7217537808 1.5392258317 0.75324816947 1.6131905766 1.0208108086 1.7131199424 0.97787788059 
1.2468348677 0.56561780405 1.4969083466 0.76320997899 1.7012549157 1.0682717171 
|e|_L2|,%20e=u-u^h 1 24 double
0.0032931145679 0.011825395904 0.0058087738378 0.020136724551 0.0034118581862 0.011426318628 0.012432847722 0.04085991358 0.021637849377 
0.069990783843 0.012562041516 0.039974209667 0.015539423359 0.048874490857 0.026200806448 0.084699616953 0.014742795999 0.048966784245 
0.0064318951997 0.019778926027 0.010361747798 0.034866586059 0.0055361081912 0.02049054564 
|p^h|_L2 1 24 double
1.3078065327 0.73174075706 1.301554989 0.62388183264 1.2382639659 0.77348685945 1.5864032936 0.90015160824 1.5028532727 
0.91869061022 1.4486942701 0.7217537808 1.5392258317 0.75324816947 1.6131905766 1.0208108086 1.7131199424 0.97787788059 
1.2468348677 0.56561780405 1.4969083466 0.76320997899 1.7012549157 1.0682717171 
|p|_L2 1 24 double
0 0 0 0 0 0 0 0 0 
0 0 0 0 0 0 0 0 0 
0 0 0 0 0 0 
|s^h|_L2 1 24 double
2.2625009388 1.2614496332 2.2433690209 1.061621111 2.1424246396 1.3322967226 2.7334134046 1.5449732186 2.5663460053 
1.5186315557 2.4972322828 1.2456554984 2.6571040426 1.3320371932 2.7590034494 1.7145929435 2.9529268171 1.6918662643 
2.1660190307 1.0319460348 2.5889852681 1.3697054504 2.9451047626 1.8637720663 
|sigma|_L2 1 24 double
0.16701116764 0.16701116764 0.1670362241 0.1670362241 0.16701116764 0.16701116764 0.21343136459 0.21343136459 0.21346338541 
0.21346338541 0.21343136459 0.21343136459 0.22951718639 0.22951718639 0.22955162054 0.22955162054 0.22951718639 0.22951718639 
0.20131120373 0.20131120373 0.20134140617 0.20134140617 0.20131120373 0.20131120373 
|u^h|_H1 1 24 double
0.072528663878 0.057464324488 0.060683468612 0.038137952108 0.072204000263 0.056722484238 0.10196877586 0.13220107105 0.090153462896 
0.068087652388 0.10218576941 0.1294844881 0.13073746431 0.19399868853 0.13823440259 0.17909656512 0.13214308336 0.19297681424 
0.12039285668 0.1728845376 0.13494598523 0.22504244477 0.11733130383 0.17571578418 
|u^h|_L2 1 24 double
0.013875536731 0.0091173950635 0.011565399485 0.006386021336 0.013801638658 0.0091225333958 0.058398635801 0.039930667389 0.049644158331 
0.018167828474 0.058244940764 0.040006107572 0.12826621073 0.10357885721 0.1181949406 0.067004008281 0.12887980562 0.10343125298 
0.17352635481 0.16436100278 0.17025115287 0.15127820576 0.17406684761 0.16409955707 
|u|_H1 1 24 double
0.083505583819 0.083505583819 0.083518112049 0.083518112049 0.083505583819 0.083505583819 0.1067156823 0.1067156823 0.10673169271 
0.10673169271 0.1067156823 0.1067156823 0.11475859319 0.11475859319 0.11477581027 0.11477581027 0.11475859319 0.11475859319 
0.10065560186 0.10065560186 0.10067070309 0.10067070309 0.10065560186 0.10065560186 
|u|_L2 1 24 double
0.01613877619 0.01613877619 0.016141197469 0.016141197469 0.01613877619 0.01613877619 0.067042663005 0.067042663005 0.067052721325 
0.067052721325 0.067042663005 0.067042663005 0.13901433342 0.13901433342 0.13903518956 0.13903518956 0.13901433342 0.13901433342 
0.17739745006 0.17739745006 0.17742406476 0.17742406476 0.17739745006 0.17739745006 
POINT_DATA 60
FIELD FieldData 50
Continuous%20global%20L2-projection%20p-rec 1 60 double
-8.6407941521 -6.2574457182 -3.8740972844 -9.0902869376 -5.8782784256 -2.6662699137 -8.7975206492 -6.0286627462 -3.2598048431 
-8.0551737221 -6.5582594867 -5.0613452512 -8.5673707482 -6.1290516964 -3.6907326445 -8.3582329929 -5.9097430841 -3.4612531754 
-7.8945214381 -5.4592011322 -3.0238808264 -7.6398084882 -5.227832594 -2.8158566999 -8.0130049361 -5.3011346982 -2.5892644602 
-7.65634012 -5.6266826988 -3.5970252776 -7.6129669056 -5.5629191983 -3.5128714911 -7.9262454918 -5.1735885632 -2.4209316345 
-7.1321781486 -4.4584548481 -1.7847315476 -7.53365653 -5.1296250474 -2.7255935647 -8.4305521462 -6.167036261 -3.9035203758 
-8.9262385211 -6.5335885814 -4.1409386418 -6.5598250068 -4.2053344891 -1.8508439715 -7.6592928523 -4.823349066 -1.9874052798 
-9.1882692224 -6.4437772231 -3.6992852238 -9.6182365619 -7.4466770611 -5.2751175602 
Continuous%20global%20L2-projection%20sigma_xx 1 60 double
8.6407941521 6.2574457182 3.8740972844 9.0902869376 5.8782784256 2.6662699137 8.7975206492 6.0286627462 3.2598048431 
8.0551737221 6.5582594867 5.0613452512 8.5673707482 6.1290516964 3.6907326445 8.2073825702 5.6033499972 2.9993174243 
7.7248663236 5.1685061504 2.6121459772 7.6398084882 5.227832594 2.8158566999 8.0130049361 5.3011346982 2.5892644602 
7.2526462652 5.0165995658 2.7805528664 7.194829385 4.9660404313 2.7372514776 7.9262454918 5.1735885632 2.4209316345 
7.1321781486 4.4584548481 1.7847315476 7.2421937212 4.7236069691 2.2050202169 8.2277143511 5.7241324443 3.2205505374 
8.9262385211 6.5335885814 4.1409386418 6.5598250068 4.2053344891 1.8508439715 7.6592928523 4.823349066 1.9874052798 
9.1882692224 6.4437772231 3.6992852238 9.6182365619 7.4466770611 5.2751175602 
Continuous%20global%20L2-projection%20sigma_xy 1 60 double
-1.0746667674e-16 2.6002226303e-16 -4.390091383e-16 2.0900114196e-17 3.4555406209e-17 2.1214025184e-16 6.6983418561e-17 -3.6363993055e-17 4.786476143e-17 
-3.811763855e-17 5.5189430682e-17 -8.4069461216e-17 1.6791623306e-16 -0.36052185419 -1.1219949497 -3.5047507686e-17 -0.19118842837 -0.51382370992 
-1.3357299954e-16 0.18023388482 0.56091331547 6.6627894615e-17 0.38243422853 1.027801608 1.1102230246e-16 -0.84745672366 -2.2124290022 
-3.7903311779e-16 -0.43150549376 -1.0664394133 -3.752130781e-17 0.42366479521 1.1060485497 -4.4408920985e-16 0.86314047361 2.1331988436 
-1.3613611991e-16 -0.62151426799 -1.4175953607 -1.7644327681e-16 -0.24053538906 -0.81933749703 -7.3898215012e-17 0.31071051502 0.70869134837 
-1.1893600834e-16 0.48114295793 1.6389208607 -1.7898838108e-16 -2.2770265777e-16 -1.2269846257e-16 -1.2097579379e-17 -1.3671363093e-16 3.7492294469e-16 
-2.0770944591e-16 6.549716251e-17 2.5124186855e-16 -2.1045367316e-17 -3.6581548864e-16 -5.6231995234e-17 
Continuous%20global%20L2-projection%20sigma_xz 1 60 double
1.0002807767 1.0002807767 1.0002807767 1.0002807767 0.41552366231 -0.92418210211 1.0002807767 0.39616252699 -0.81672455676 
1.0002807767 1.0002807767 1.0002807767 0.99992027486 0.99992027486 0.99992027486 0.99992027486 0.35285269693 -0.64295131489 
0.99992027486 0.32611858405 -0.5764931775 0.99992027486 0.99992027486 0.99992027486 0.99988596581 0.99988596581 0.99988596581 
0.99988596581 0.85167052197 0.78016583325 0.99988596581 0.92104609675 0.64498495341 0.99988596581 0.99988596581 0.99988596581 
1.0000626108 1.0000626108 1.0000626108 1.0000626108 1.5099564297 2.2946570202 1.0000626108 1.5310230994 2.2422875389 
1.0000626108 1.0000626108 1.0000626108 1.0000826677 1.0000826677 1.0000826677 1.0000826677 1.7618080664 2.8571990418 
1.0000826677 1.6069748219 3.110903563 1.0000826677 1.0000826677 1.0000826677 
Continuous%20global%20L2-projection%20sigma_yx 1 60 double
3.2803523122e-18 -3.124852224e-18 3.1676044691e-18 -2.9950597403e-18 2.3710211972e-18 -2.6611438368e-18 -3.5305737225e-18 4.6259358853e-18 -7.5556952793e-18 
-2.329267551e-19 -2.6322747949e-18 3.4581755392e-18 -4.872569263e-18 5.5472326994e-18 -7.3463351965e-18 -0.011045528227 -0.0032393734436 0.0045667813392 
-0.010900557972 0.0077876802534 0.026475918479 5.4303838964e-19 4.5096253076e-18 -6.5003320285e-18 2.2665280854e-17 -1.5750908914e-17 1.0820545297e-17 
0.010729938745 0.041456554085 0.072183169425 0.024854393676 -0.015303159133 -0.055460711941 -2.007875716e-18 -1.6185117224e-18 3.9989261205e-18 
2.7274328837e-18 -2.0344753883e-17 1.4958412407e-17 0.042348027229 0.018465861678 -0.0054163038731 0.046460717916 0.013569928706 -0.019320860505 
-3.0972918838e-18 6.1945837677e-18 -3.2164828313e-18 -5.3440458374e-18 1.0283852315e-17 -8.0809300672e-18 7.1434079303e-18 -1.7670407261e-17 8.6261333776e-18 
-2.2506394802e-17 1.6242174886e-17 -1.2592825466e-17 8.4992282317e-18 -8.6846812701e-18 6.7642871804e-18 
Continuous%20global%20L2-projection%20sigma_yy 1 60 double
8.6407941521 6.2574457182 3.8740972844 9.0902869376 5.8782784256 2.6662699137 8.7975206492 6.0286627462 3.2598048431 
8.0551737221 6.5582594867 5.0613452512 8.5673707482 6.1115882217 3.6658378456 8.3582329929 5.906670588 3.481885496 
7.8945214381 5.4679315596 3.0363263585 7.6398084882 5.2339785084 2.7745858673 8.0130049361 5.3445912274 2.8066343494 
7.65634012 5.6341537277 3.5354318069 7.6129669056 5.5411941934 3.4042028512 7.9262454918 5.1586442634 2.5441370588 
7.1321781486 4.5196942035 1.8570920022 7.53365653 5.1619046893 2.7470820343 8.4305521462 6.1364211768 3.8673455761 
8.9262385211 6.4690196112 4.0979552543 6.5598250068 4.2053344891 1.8508439715 7.6592928523 4.823349066 1.9874052798 
9.1882692224 6.4437772231 3.6992852238 9.6182365619 7.4466770611 5.2751175602 
Continuous%20global%20L2-projection%20sigma_yz 1 60 double
5.1127414292e-18 8.3663451603e-18 2.7557213238e-18 -1.2445932589e-18 -0.052286453363 -0.10107201368 -3.9649972567e-18 -0.025183076386 0.1086842904 
9.1849517215e-18 -1.267018271e-17 1.3273985259e-17 -5.49725763e-18 6.7966094335e-18 9.7951135953e-18 2.1904692304e-18 0.028902363636 0.14408141679 
4.7704642693e-18 0.0085032908436 -0.0777820053 -5.9534943007e-18 1.4301474099e-17 -3.234297996e-17 2.9324835453e-17 -4.3173833256e-17 6.2126890977e-17 
-3.8764750683e-17 0.053902464917 0.052270245099 -9.3803269524e-18 0.050934437739 0.016314823426 1.7698648191e-17 -3.7701089716e-17 4.0470160681e-17 
-8.674154591e-18 1.9475436056e-17 7.279296961e-18 2.4506010668e-18 -0.022775266561 -0.11353717347 2.1361202777e-17 -0.0067006532077 0.061292769224 
-1.7551320675e-17 3.7580474857e-17 -6.0041012851e-17 1.9296715552e-17 -3.7007434154e-17 4.2789845741e-17 -2.2402678661e-17 -0.094666800164 -0.057133126512 
-3.9649972567e-17 -0.10612690837 -0.11434884893 2.8879758936e-17 -5.9742908729e-17 2.293256046e-17 
Continuous%20global%20L2-projection%20sigma_zx 1 60 double
1.5693602851e-17 -2.745562607e-18 5.8112963485e-18 -1.8706786083e-18 -7.5717568591e-18 1.8477422435e-18 -3.9668211662e-18 5.9623173633e-18 -1.0074260372e-17 
7.1278088223e-19 -2.6212713513e-18 3.1477716907e-18 -2.6586736902e-17 2.7986038844e-18 -9.7951135953e-18 -0.049403114244 0.0097459703684 0.068895054981 
-0.045448965393 -0.004019992426 0.037408980541 -2.4877544803e-18 5.0014444133e-18 -6.0207864499e-18 2.6115699238e-17 -8.6556580444e-18 1.0352041256e-17 
-0.078052887693 -0.019604943693 0.038843000308 -0.015556719154 0.0014690831304 0.018494885415 1.8070838835e-18 -2.0745593133e-18 -2.1345511388e-19 
-3.5122190361e-19 1.7719458796e-17 -2.162249064e-17 -0.017462594435 -0.020486399531 -0.023510204628 0.034827516414 -0.012792715803 -0.06041294802 
-3.7167502606e-18 2.4778335071e-18 -4.2886437751e-18 6.1608368978e-18 -1.1656256446e-17 1.3203325278e-17 -9.4399741699e-18 2.1348780363e-17 -2.133564043e-17 
-8.011070865e-18 1.4391800532e-18 -5.0371301862e-18 1.0741118942e-18 -1.9198885608e-18 5.9687029354e-18 
Continuous%20global%20L2-projection%20sigma_zy 1 60 double
2.9062220558e-17 -4.5496327274e-17 3.8815610382e-17 2.8775697736e-18 2.1365533874e-19 7.6569187876e-18 -7.1368937266e-18 2.3784477411e-18 -9.2797468636e-18 
2.0915681623e-17 -2.8944799486e-17 1.6782937764e-17 -6.2968587398e-17 -0.052271652383 0.051608054559 1.0952346152e-17 -0.029060445006 -0.015493602096 
0 0.026131905363 -0.025800156227 -1.6656973654e-17 0.058129610465 0.030991853508 9.7144514655e-17 -0.13465136816 -0.095874036643 
-5.2763132874e-17 0.0057102940921 0.015285930909 3.752130781e-17 0.067315584059 0.047929826935 -6.9388939039e-18 -0.011422301728 -0.030576448817 
-2.9779776231e-17 -0.055704485407 -0.08299240261 0 0.028283274265 -0.018411233225 -1.5010574924e-17 0.027848064383 0.041489976153 
9.9113340283e-18 -0.056575035769 0.036827991289 1.9987350042e-17 -2.046011846e-17 3.283324765e-17 5.0218102155e-19 -5.3390557732e-18 -7.8423794339e-18 
4.1774736167e-18 -1.5234238311e-17 2.2798967628e-17 -3.2452191256e-18 1.6868977694e-17 -1.7760136559e-17 
Continuous%20global%20L2-projection%20sigma_zz 1 60 double
8.6407941521 6.2574457182 3.8740972844 9.0902869376 5.7891157057 2.7866916254 8.7975206492 5.8923714544 3.2133376526 
8.0551737221 6.5582594867 5.0613452512 8.5673707482 6.1290516964 3.6907326445 8.3582329929 5.8220154752 3.3950967684 
7.8945214381 5.4482318444 3.0447607628 7.6398084882 5.227832594 2.8158566999 8.0130049361 5.3011346982 2.5892644602 
7.65634012 5.6427590154 3.521452177 7.6129669056 5.627519056 3.4901173708 7.9262454918 5.1735885632 2.4209316345 
7.1321781486 4.4584548481 1.7847315476 7.53365653 5.1987550225 2.7777252804 8.4305521462 6.1756801372 3.8870668385 
8.9262385211 6.5335885814 4.1409386418 6.5598250068 4.2053344891 1.8508439715 7.6592928523 4.8457493311 2.0877042808 
9.1882692224 6.3809986273 3.7864204275 9.6182365619 7.4466770611 5.2751175602 
Continuous%20global%20L2-projection%20u_x,x 1 60 double
-5.2136244811e-17 1.5104673192e-16 -2.903864701e-16 6.1934796107e-17 -1.8966250119e-16 4.4129073202e-16 -1.3921753579e-16 3.2895544073e-16 -3.2237633192e-16 
6.0522095666e-17 -1.7809132459e-16 1.3753541496e-16 1.791106486e-16 -4.2538779043e-16 5.4852636134e-16 -0.15085042268 -0.30639308691 -0.46193575114 
-0.16965511441 -0.29069498181 -0.41173484921 -2.1938228165e-16 4.7458288506e-16 -2.5963906315e-16 -1.4524381896e-16 3.5550302067e-16 -5.0455206413e-16 
-0.40369385481 -0.61008313298 -0.81647241116 -0.41813752055 -0.59687876701 -0.77562001348 1.3046124999e-16 -6.2836036829e-17 2.3767965947e-16 
3.5261856835e-16 -6.3716907675e-16 7.6102692808e-16 -0.29146280885 -0.40601807833 -0.52057334781 -0.20283779502 -0.4429038167 -0.68296983838 
1.3215112038e-16 5.2860448151e-17 -3.4309150201e-16 -2.1600944372e-16 2.3737722496e-16 -2.4907521408e-16 2.4612411449e-16 -4.7634429573e-16 4.4508101998e-16 
-1.7344006943e-16 -2.2862403131e-16 -4.4326745639e-16 2.5132078442e-16 -2.2081516232e-16 1.5159722139e-17 
Continuous%20global%20L2-projection%20u_x,y 1 60 double
-1.0746667674e-16 2.6002226303e-16 -4.390091383e-16 2.0900114196e-17 3.4555406209e-17 2.1214025184e-16 6.6983418561e-17 -3.6363993055e-17 4.786476143e-17 
-3.811763855e-17 5.5189430682e-17 -8.4069461216e-17 1.6791623306e-16 -0.36052185419 -1.1219949497 -3.5047507686e-17 -0.19118842837 -0.51382370992 
-1.3357299954e-16 0.18023388482 0.56091331547 6.6627894615e-17 0.38243422853 1.027801608 1.1102230246e-16 -0.84745672366 -2.2124290022 
-3.7903311779e-16 -0.43150549376 -1.0664394133 -3.752130781e-17 0.42366479521 1.1060485497 -4.4408920985e-16 0.86314047361 2.1331988436 
-1.3613611991e-16 -0.62151426799 -1.4175953607 -1.7644327681e-16 -0.24053538906 -0.81933749703 -7.3898215012e-17 0.31071051502 0.70869134837 
-1.1893600834e-16 0.48114295793 1.6389208607 -1.7898838108e-16 -2.2770265777e-16 -1.2269846257e-16 -1.2097579379e-17 -1.3671363093e-16 3.7492294469e-16 
-2.0770944591e-16 6.549716251e-17 2.5124186855e-16 -2.1045367316e-17 -3.6581548864e-16 -5.6231995234e-17 
Continuous%20global%20L2-projection%20u_x,z 1 60 double
1.0002807767 1.0002807767 1.0002807767 1.0002807767 0.41552366231 -0.92418210211 1.0002807767 0.39616252699 -0.81672455676 
1.0002807767 1.0002807767 1.0002807767 0.99992027486 0.99992027486 0.99992027486 0.99992027486 0.35285269693 -0.64295131489 
0.99992027486 0.32611858405 -0.5764931775 0.99992027486 0.99992027486 0.99992027486 0.99988596581 0.99988596581 0.99988596581 
0.99988596581 0.85167052197 0.78016583325 0.99988596581 0.92104609675 0.64498495341 0.99988596581 0.99988596581 0.99988596581 
1.0000626108 1.0000626108 1.0000626108 1.0000626108 1.5099564297 2.2946570202 1.0000626108 1.5310230994 2.2422875389 
1.0000626108 1.0000626108 1.0000626108 1.0000826677 1.0000826677 1.0000826677 1.0000826677 1.7618080664 2.8571990418 
1.0000826677 1.6069748219 3.110903563 1.0000826677 1.0000826677 1.0000826677 
Continuous%20global%20L2-projection%20u_y,x 1 60 double
3.2803523122e-18 -3.124852224e-18 3.1676044691e-18 -2.9950597403e-18 2.3710211972e-18 -2.6611438368e-18 -3.5305737225e-18 4.6259358853e-18 -7.5556952793e-18 
-2.329267551e-19 -2.6322747949e-18 3.4581755392e-18 -4.872569263e-18 5.5472326994e-18 -7.3463351965e-18 -0.011045528227 -0.0032393734436 0.0045667813392 
-0.010900557972 0.0077876802534 0.026475918479 5.4303838964e-19 4.5096253076e-18 -6.5003320285e-18 2.2665280854e-17 -1.5750908914e-17 1.0820545297e-17 
0.010729938745 0.041456554085 0.072183169425 0.024854393676 -0.015303159133 -0.055460711941 -2.007875716e-18 -1.6185117224e-18 3.9989261205e-18 
2.7274328837e-18 -2.0344753883e-17 1.4958412407e-17 0.042348027229 0.018465861678 -0.0054163038731 0.046460717916 0.013569928706 -0.019320860505 
-3.0972918838e-18 6.1945837677e-18 -3.2164828313e-18 -5.3440458374e-18 1.0283852315e-17 -8.0809300672e-18 7.1434079303e-18 -1.7670407261e-17 8.6261333776e-18 
-2.2506394802e-17 1.6242174886e-17 -1.2592825466e-17 8.4992282317e-18 -8.6846812701e-18 6.7642871804e-18 
Continuous%20global%20L2-projection%20u_y,y 1 60 double
-4.0315745656e-19 -3.044354532e-18 1.1526943248e-17 1.4726023897e-18 -1.5322384895e-18 -1.4039242292e-17 -4.754995709e-18 8.0092574197e-18 -7.6953503591e-18 
8.2321895859e-18 -1.267824609e-17 1.7725462987e-17 0 -0.017463474619 -0.024894798915 -3.2857038456e-18 -0.0030724961816 0.020632320626 
9.5409285387e-18 0.0087304273972 0.012445532131 -1.3533791094e-17 0.0061459143573 -0.041270832594 0 0.0434565292 0.21736988913 
3.7687952053e-18 0.0074710289384 -0.061593470681 -1.8760653905e-17 -0.021725004983 -0.10866863994 2.5153490402e-17 -0.014944299782 0.12320542432 
1.7017014989e-17 0.06123935535 0.072360454601 -1.9604808534e-17 0.032279641908 0.021488469597 1.3855915315e-17 -0.030615084191 -0.036174799637 
-2.4778335071e-17 -0.064568970285 -0.042983387449 -1.4921745219e-17 2.3056168425e-17 3.1640270182e-18 1.2496255679e-17 -1.8356761234e-17 1.4488627675e-17 
-8.8922768421e-18 1.1989011728e-17 -2.6487367662e-17 3.2896561037e-18 3.2573526748e-18 1.5556648466e-17 
Continuous%20global%20L2-projection%20u_y,z 1 60 double
5.1127414292e-18 8.3663451603e-18 2.7557213238e-18 -1.2445932589e-18 -0.052286453363 -0.10107201368 -3.9649972567e-18 -0.025183076386 0.1086842904 
9.1849517215e-18 -1.267018271e-17 1.3273985259e-17 -5.49725763e-18 6.7966094335e-18 9.7951135953e-18 2.1904692304e-18 0.028902363636 0.14408141679 
4.7704642693e-18 0.0085032908436 -0.0777820053 -5.9534943007e-18 1.4301474099e-17 -3.234297996e-17 2.9324835453e-17 -4.3173833256e-17 6.2126890977e-17 
-3.8764750683e-17 0.053902464917 0.052270245099 -9.3803269524e-18 0.050934437739 0.016314823426 1.7698648191e-17 -3.7701089716e-17 4.0470160681e-17 
-8.674154591e-18 1.9475436056e-17 7.279296961e-18 2.4506010668e-18 -0.022775266561 -0.11353717347 2.1361202777e-17 -0.0067006532077 0.061292769224 
-1.7551320675e-17 3.7580474857e-17 -6.0041012851e-17 1.9296715552e-17 -3.7007434154e-17 4.2789845741e-17 -2.2402678661e-17 -0.094666800164 -0.057133126512 
-3.9649972567e-17 -0.10612690837 -0.11434884893 2.8879758936e-17 -5.9742908729e-17 2.293256046e-17 
Continuous%20global%20L2-projection%20u_z,x 1 60 double
1.5693602851e-17 -2.745562607e-18 5.8112963485e-18 -1.8706786083e-18 -7.5717568591e-18 1.8477422435e-18 -3.9668211662e-18 5.9623173633e-18 -1.0074260372e-17 
7.1278088223e-19 -2.6212713513e-18 3.1477716907e-18 -2.6586736902e-17 2.7986038844e-18 -9.7951135953e-18 -0.049403114244 0.0097459703684 0.068895054981 
-0.045448965393 -0.004019992426 0.037408980541 -2.4877544803e-18 5.0014444133e-18 -6.0207864499e-18 2.6115699238e-17 -8.6556580444e-18 1.0352041256e-17 
-0.078052887693 -0.019604943693 0.038843000308 -0.015556719154 0.0014690831304 0.018494885415 1.8070838835e-18 -2.0745593133e-18 -2.1345511388e-19 
-3.5122190361e-19 1.7719458796e-17 -2.162249064e-17 -0.017462594435 -0.020486399531 -0.023510204628 0.034827516414 -0.012792715803 -0.06041294802 
-3.7167502606e-18 2.4778335071e-18 -4.2886437751e-18 6.1608368978e-18 -1.1656256446e-17 1.3203325278e-17 -9.4399741699e-18 2.1348780363e-17 -2.133564043e-17 
-8.011070865e-18 1.4391800532e-18 -5.0371301862e-18 1.0741118942e-18 -1.9198885608e-18 5.9687029354e-18 
Continuous%20global%20L2-projection%20u_z,y 1 60 double
2.9062220558e-17 -4.5496327274e-17 3.8815610382e-17 2.8775697736e-18 2.1365533874e-19 7.6569187876e-18 -7.1368937266e-18 2.3784477411e-18 -9.2797468636e-18 
2.0915681623e-17 -2.8944799486e-17 1.6782937764e-17 -6.2968587398e-17 -0.052271652383 0.051608054559 1.0952346152e-17 -0.029060445006 -0.015493602096 
0 0.026131905363 -0.025800156227 -1.6656973654e-17 0.058129610465 0.030991853508 9.7144514655e-17 -0.13465136816 -0.095874036643 
-5.2763132874e-17 0.0057102940921 0.015285930909 3.752130781e-17 0.067315584059 0.047929826935 -6.9388939039e-18 -0.011422301728 -0.030576448817 
-2.9779776231e-17 -0.055704485407 -0.08299240261 0 0.028283274265 -0.018411233225 -1.5010574924e-17 0.027848064383 0.041489976153 
9.9113340283e-18 -0.056575035769 0.036827991289 1.9987350042e-17 -2.046011846e-17 3.283324765e-17 5.0218102155e-19 -5.3390557732e-18 -7.8423794339e-18 
4.1774736167e-18 -1.5234238311e-17 2.2798967628e-17 -3.2452191256e-18 1.6868977694e-17 -1.7760136559e-17 
Continuous%20global%20L2-projection%20u_z,z 1 60 double