# vtk DataFile Version 5.1
vtk output
ASCII
DATASET UNSTRUCTURED_GRID
POINTS 60 double
0 0 0 0.5 0 0 1 0 0 
0 0.3333 0 0.5 0.3333 0 1 0.3333 0 
0 0.6667 0 0.5 0.6667 0 1 0.6667 0 
0 1 0 0.5 1 0 1 1 0 
0 0 0.167373 0.5 0 0.167373 1 0 0.167373 
0 0.3333 0.167373 0.5 0.3333 0.167373 1 0.3333 0.167373 
0 0.6667 0.167373 0.5 0.6667 0.167373 1 0.6667 0.167373 
0 1 0.167373 0.5 1 0.167373 1 1 0.167373 
0 0 0.440718 0.5 0 0.440718 1 0 0.440718 
0 0.3333 0.440718 0.5 0.3333 0.440718 1 0.3333 0.440718 
0 0.6667 0.440718 0.5 0.6667 0.440718 1 0.6667 0.440718 
0 1 0.440718 0.5 1 0.440718 1 1 0.440718 
0 0 0.756819 0.5 0 0.756819 1 0 0.756819 
0 0.3333 0.756819 0.5 0.3333 0.756819 1 0.3333 0.756819 
0 0.6667 0.756819 0.5 0.6667 0.756819 1 0.6667 0.756819 
0 1 0.756819 0.5 1 0.756819 1 1 0.756819 
0 0 1 0.5 0 1 1 0 1 
0 0.3333 1 0.5 0.3333 1 1 0.3333 1 
0 0.6667 1 0.5 0.6667 1 1 0.6667 1 
0 1 1 0.5 1 1 1 1 1 

CELLS 25 192
OFFSETS vtktypeint64
0 8 16 24 32 40 48 56 64 
72 80 88 96 104 112 120 128 136 
144 152 160 168 176 184 192 
CONNECTIVITY vtktypeint64
0 1 4 3 12 13 16 15 1 
2 5 4 13 14 17 16 3 4 
7 6 15 16 19 18 4 5 8 
7 16 17 20 19 6 7 10 9 
18 19 22 21 7 8 11 10 19 
20 23 22 12 13 16 15 24 25 
28 27 13 14 17 16 25 26 29 
28 15 16 19 18 27 28 31 30 
16 17 20 19 28 29 32 31 18 
19 22 21 30 31 34 33 19 20 
23 22 31 32 35 34 24 25 28 
27 36 37 40 39 25 26 29 28 
37 38 41 40 27 28 31 30 39 
40 43 42 28 29 32 31 40 41 
44 43 30 31 34 33 42 43 46 
45 31 32 35 34 43 44 47 46 
36 37 40 39 48 49 52 51 37 
38 41 40 49 50 53 52 39 40 
43 42 51 52 55 54 40 41 44 
43 52 53 56 55 42 43 46 45 
54 55 58 57 43 44 47 46 55 
56 59 58 
CELL_TYPES 24
12
12
12
12
12
12
12
12
12
12
12
12
12
12
12
12
12
12
12
12
12
12
12
12

CELL_DATA 24
FIELD FieldData 28
Continuous%20global%20L2-projection%20eta^p 1 24 double
2.3538796942 1.4168375981 1.3084631915 1.2387552945 1.2380685363 2.0735204599 1.1730696987 1.0753676566 1.1052867816 
0 1.2387552945 1.0753676566 1.2374814794 1.2386353343 1.0869358388 1.3804872061 1.3818059552 1.2918289774 
1.3771522244 1.1413702331 1.1965760656 1.1966236368 1.1954989825 1.0899538748 
Continuous%20global%20L2-projection%20eta^s 1 24 double
1.4387022244 0.89296466935 0.39448225095 0.81191326091 0.81630343682 1.2761090579 0.41622765036 0.87710731774 0.62149879087 
0 0.81191326091 0.87710731774 0.8156992327 0.81171283378 0.44509503359 0.93173260841 0.93344184327 0.36919802149 
0.92416836494 0.60880429077 0.82066156305 0.82088475337 0.8255744771 1.0877518269 
Continuous%20global%20L2-projection%20eta^total 1 24 double
2.483272131 1.5762077989 1.2067708777 1.1714560897 1.1715609472 2.0735204599 1.2043066407 1.0753676566 1.0557337657 
0 1.1714560897 1.0753676566 1.1705198959 1.1713410819 1.1475613149 1.2937903019 1.2950845922 1.2109300262 
1.2891769958 1.1139965001 1.1449545636 1.1449874472 1.1438849862 1.1179747263 
Continuous%20global%20L2-projection%20eta^u 1 24 double
2.7168041505 1.7702153588 1.1738490733 1.1058069443 1.1055433324 2.0735204599 1.2144935548 1.0753676566 1.0158098289 
0 1.1058069443 1.0753676566 1.1040877836 1.1057090873 1.1684832353 1.2047922955 1.2052785638 1.1835409417 
1.2009735036 1.0952479614 1.0930520886 1.0930493103 1.0910107107 1.1502972329 
Continuous%20global%20L2-projection%20|(u^*,p^*)-(u,p)| 1 24 double
2.4089551038 1.5167404338 2.3694861528 1.4902739935 2.3441531148 1.5455904616 2.8979727334 1.8811965253 2.8747223133 
1.9246187791 2.8180933862 1.8206290839 2.8626562311 1.7345350686 3.1422212287 2.1098730823 3.3720630965 2.2869846765 
2.3492719371 1.2655605953 2.8916074795 1.8398211175 3.4069694481 2.3644298949 
Continuous%20global%20L2-projection%20|(u^*,p^*)-(u^h,p^h)| 1 24 double
0.31616660631 0.30224926062 0.32394673697 0.33712339365 0.31478392963 0.261470671 0.36390962146 0.34547847954 0.30969434116 
0.31446346096 0.30329498809 0.44274340791 0.3839353857 0.48211221699 0.37311735618 0.3508675899 0.41869485073 0.40781546549 
0.35772511837 0.44814345668 0.43047035684 0.43609005939 0.45202744916 0.3390352772 
Continuous%20global%20L2-projection%20|div%20u^*|_L2 1 24 double
0.31612068944 0.30179436657 0.32381281704 0.33625014331 0.3147314272 0.26117682227 0.36333834425 0.3398757443 0.30760964192 
0.29766305109 0.30253517796 0.43919898586 0.38302522583 0.47712543397 0.37075530741 0.32977309826 0.41804491055 0.40164577781 
0.35753177282 0.44743232627 0.43017693443 0.43331891537 0.45195688187 0.33751145571 
Continuous%20global%20L2-projection%20|p^*-p^h|_L2 1 24 double
0.033897154791 0.047723093799 0.055318979569 0.07713756366 0.030604569296 0.042986573196 0.095185798249 0.13790415162 0.16453139664 
0.24638409207 0.093639992084 0.13763545981 0.10365756943 0.13478413017 0.19472964412 0.29130676002 0.12096685521 0.19137555078 
0.038270169544 0.039908179624 0.080783234506 0.11657155235 0.056883803216 0.092909805548 
Continuous%20global%20L2-projection%20|p^*-p|_L2 1 24 double
2.408592856 1.5105068954 2.3685277176 1.4750192929 2.343769382 1.5399714217 2.896733767 1.8672212741 2.8729072888 
1.9128818781 2.8168513289 1.8066809686 2.8609261888 1.7153537859 3.1402293307 2.1002587287 3.3707108815 2.2722437447 
2.3484906889 1.2543724503 2.8903646396 1.8231611312 3.4065533414 2.3579825097 
Continuous%20global%20L2-projection%20|s^*-s^h|_L2 1 24 double
0.54989915634 0.52608413886 0.56383069343 0.58928619741 0.54506380808 0.45409201276 0.63690735041 0.60765643402 0.55000038171 
0.56488691224 0.53220823594 0.77138984726 0.6719638756 0.83679752 0.66053588541 0.62679014125 0.73293175595 0.71786681267 
0.62100775621 0.77698029233 0.74931206662 0.76213933953 0.78598488825 0.59257089537 
Continuous%20global%20L2-projection%20|sigma^*-sigma|_L2 1 24 double
4.1581228239 2.6109143652 4.0766239903 2.5509943269 4.0466082888 2.6605301782 4.9756440999 3.2048798079 4.8884938353 
3.2032547773 4.8360570868 3.0948703864 4.91066409 2.9591733998 5.3333991336 3.4960398751 5.7815013264 3.8741986744 
4.0541189384 2.1862260316 4.9692674686 3.14091362 5.8766744783 4.0586590382 
Continuous%20global%20L2-projection%20|u^*-u^h|_H1 1 24 double
0.0053881956731 0.016576364132 0.0093138559847 0.024249199329 0.0057490077222 0.012392711482 0.02038284046 0.061966589902 0.03587329293 
0.10140994179 0.021454973737 0.055910428929 0.026420763887 0.069162923798 0.041917341385 0.11982390958 0.023320179875 0.070669109662 
0.01175975079 0.025236306652 0.015891293442 0.049084187716 0.0079869718681 0.032108199123 
Continuous%20global%20L2-projection%20|u^*-u|_H1 1 24 double
0.041774945092 0.13736980283 0.067387532163 0.21268441756 0.042413554167 0.13167344197 0.084731615593 0.22887787222 0.10213759838 
0.21222715454 0.083659572761 0.22493140912 0.099508990245 0.25724170231 0.11186599641 0.2011906956 0.095486546066 0.25924365922 
0.060581500231 0.16790883309 0.084770664894 0.24703286039 0.05324614841 0.17449129422 
p 1 24 double
-15.378317833 -8.034204483 -15.188966751 -7.4273209572 -15.075057983 -8.812169075 -14.394271851 -7.9737272263 -13.981235504 
-8.4029388428 -13.424536705 -6.8474602699 -13.029371262 -6.0135698318 -14.376987457 -8.8367671967 -15.464214325 -8.9940929413 
-12.060917854 -4.5842533112 -15.26647377 -7.8420538902 -18.33249855 -11.263882637 
|div%20u^h|_L2 1 24 double
0.030854708095 0.04643222955 0.053403114396 0.081635840334 0.03245819662 0.051829020065 0.087352422445 0.13831786218 0.15368976609 
0.26625148966 0.085074328751 0.13239579012 0.091817653651 0.11788139785 0.18040858951 0.31472632381 0.11131662771 0.19791047391 
0.036220434689 0.035339458032 0.076274854615 0.12216839557 0.053899202964 0.098850740182 
|e_u|_H1%20+%20|e_p|_L2 1 24 double
2.5686829049 1.3492800827 2.5379458883 1.2591323066 2.5180550381 1.4779157717 3.0734825656 1.7201704856 2.9861746202 
1.8068575111 2.866579023 1.4818356259 2.992248936 1.4076637119 3.301840414 2.0363675712 3.5506460665 2.0830036337 
2.4288468632 0.93995021996 3.0749627987 1.5999856547 3.6909247094 2.2752856679 
|e|_H1|,%20e=u-u^h 1 24 double
0.04130307242 0.14186077117 0.065223338836 0.21505180735 0.042102223328 0.13507010042 0.089158941404 0.25043014922 0.10053294015 
0.2174935452 0.088350214652 0.24487412524 0.10331978452 0.27661602514 0.10212234872 0.17889673718 0.097652324403 0.27852139033 
0.064213121152 0.17841796821 0.085521558967 0.25871538983 0.053472192699 0.18751277566 
|e|_L2,%20e=sigma-sigma^h 1 24 double
4.43514261 2.321723673 4.3680573153 2.1503892467 4.3467219272 2.5396658541 5.2821545644 2.9252380805 5.086470757 
2.9848848168 4.9239950843 2.5126330761 5.1412870909 2.4041735352 5.6159102243 3.3477309678 6.0933527217 3.5163998897 
4.1937439351 1.6278307927 5.2880341062 2.7247651167 6.3680857935 3.9004845179 
|e|_L2|,%20e=p-p^h 1 24 double
2.5683508176 1.3418018718 2.537107654 1.2406316478 2.517703036 1.4717306466 3.0721890834 1.7018434828 2.984481863 
1.7937197728 2.865217188 1.4614627894 2.9904646323 1.3802176279 3.3002607693 2.0284942303 3.5493029615 2.064298906 
2.4279978913 0.92286155225 3.0737732962 1.5789301575 3.6905373505 2.2675457723 
|e|_L2|,%20e=u-u^h 1 24 double
0.0068337799969 0.024172766704 0.011952315202 0.040900961034 0.0069660151268 0.023052339083 0.025903297045 0.083179808221 0.044721325809 
0.14225025582 0.02576040972 0.081103019636 0.032573538648 0.099037655754 0.054313761958 0.17178557413 0.030218756067 0.099414695264 
0.013558007455 0.039861951049 0.021504696413 0.070425047097 0.011290270538 0.041496580986 
|p^h|_L2 1 24 double
2.5683508176 1.3418018718 2.537107654 1.2406316478 2.517703036 1.4717306466 3.0721890834 1.7018434828 2.984481863 
1.7937197728 2.865217188 1.4614627894 2.9904646323 1.3802176279 3.3002607693 2.0284942303 3.5493029615 2.064298906 
2.4279978913 0.92286155225 3.0737732962 1.5789301575 3.6905373505 2.2675457723 
|p|_L2 1 24 double
0 0 0 0 0 0 0 0 0 
0 0 0 0 0 0 0 0 0 
0 0 0 0 0 0 
|s^h|_L2 1 24 double
4.4363039858 2.312736411 4.3671909783 2.1250656313 4.3478758859 2.5320382999 5.2842431795 2.9203892405 5.0863802744 
2.9675049411 4.9262842184 2.5067482255 5.1475987833 2.4249230035 5.6232137983 3.3690906529 6.0990774915 3.5300100771 
4.2020025781 1.6692146359 5.2968299061 2.7675435861 6.3731299984 3.9182584778 
|sigma|_L2 1 24 double
0.16701116764 0.16701116764 0.1670362241 0.1670362241 0.16701116764 0.16701116764 0.21343136459 0.21343136459 0.21346338541 
0.21346338541 0.21343136459 0.21343136459 0.22951718639 0.22951718639 0.22955162054 0.22955162054 0.22951718639 0.22951718639 
0.20131120373 0.20131120373 0.20134140617 0.20134140617 0.20131120373 0.20131120373 
|u^h|_H1 1 24 double
0.065434813085 0.098547965886 0.048602126982 0.13849110456 0.06542857982 0.092589186509 0.11604568629 0.23585828734 0.099381867153 
0.14642572758 0.11594357708 0.22930058847 0.16404282509 0.31869534305 0.17592730762 0.26052128778 0.16427321926 0.31866895832 
0.14648444707 0.25679578297 0.17489860984 0.35450217608 0.13757398425 0.26439278953 
|u^h|_L2 1 24 double
0.01195449403 0.013978122937 0.0084965610442 0.025726876806 0.011925378818 0.013045140832 0.050810944206 0.045857938876 0.036428998793 
0.079333740321 0.050742984228 0.044173127579 0.11779025589 0.082929152682 0.098970455122 0.064879832518 0.1194428802 0.082734625955 
0.16946510316 0.15260023599 0.16305400849 0.128966577 0.17081688646 0.15219237092 
|u|_H1 1 24 double
0.083505583819 0.083505583819 0.083518112049 0.083518112049 0.083505583819 0.083505583819 0.1067156823 0.1067156823 0.10673169271 
0.10673169271 0.1067156823 0.1067156823 0.11475859319 0.11475859319 0.11477581027 0.11477581027 0.11475859319 0.11475859319 
0.10065560186 0.10065560186 0.10067070309 0.10067070309 0.10065560186 0.10065560186 
|u|_L2 1 24 double
0.01613877619 0.01613877619 0.016141197469 0.016141197469 0.01613877619 0.01613877619 0.067042663005 0.067042663005 0.067052721325 
0.067052721325 0.067042663005 0.067042663005 0.13901433342 0.13901433342 0.13903518956 0.13903518956 0.13901433342 0.13901433342 
0.17739745006 0.17739745006 0.17742406476 0.17742406476 0.17739745006 0.17739745006 
POINT_DATA 60
FIELD FieldData 50
Continuous%20global%20L2-projection%20p-rec 1 60 double
-17.436299808 -11.930403689 -6.42450757 -17.678710362 -11.382247839 -5.0857853161 -17.537324973 -11.94032963 -6.3433342866 
-17.153486602 -13.046734739 -8.9399828761 -16.740704467 -11.703602737 -6.6665010074 -16.34508664 -11.463034511 -6.5809823828 
-15.5955626 -10.774053923 -5.9525452466 -15.241431471 -10.325434812 -5.4094381536 -15.380282186 -10.065982194 -4.751682202 
-15.249559902 -11.011831656 -6.7741034109 -15.446097186 -11.267211716 -7.0883262465 -15.773415732 -10.576818948 -5.3802221652 
-13.878356871 -8.184385725 -2.4904145793 -15.13033367 -10.06187708 -4.9934204891 -17.733820592 -12.947422807 -8.161025021 
-19.086111968 -13.956343073 -8.8265741772 -12.97648504 -7.4232323284 -1.8699796166 -15.288884169 -9.3898462007 -3.4908082321 
-19.539085983 -13.77441838 -8.009750777 -21.478164066 -16.193692408 -10.90922075 
Continuous%20global%20L2-projection%20sigma_xx 1 60 double
17.436299808 11.930403689 6.42450757 17.678710362 11.382247839 5.0857853161 17.537324973 11.94032963 6.3433342866 
17.153486602 13.046734739 8.9399828761 16.740704467 11.703602737 6.6665010074 16.023229784 10.839521856 5.6558139282 
15.244569563 10.189380578 5.1341915936 15.241431471 10.325434812 5.4094381536 15.380282186 10.065982194 4.751682202 
14.385253869 9.7832946928 5.1813355166 14.57995834 10.057432811 5.5349072824 15.773415732 10.576818948 5.3802221652 
13.878356871 8.184385725 2.4904145793 14.495927744 9.2565132756 4.0170988068 17.327454304 12.050924484 6.7743946647 
19.086111968 13.956343073 8.8265741772 12.97648504 7.4232323284 1.8699796166 15.288884169 9.3898462007 3.4908082321 
19.539085983 13.77441838 8.009750777 21.478164066 16.193692408 10.90922075 
Continuous%20global%20L2-projection%20sigma_xy 1 60 double
1.3434613826e-17 -1.5430339383e-17 -1.6910553649e-16 -1.0034577637e-16 2.8883607867e-16 -2.3486583681e-16 1.6537348915e-17 1.178461137e-16 2.576035342e-16 
-8.2686744575e-18 -5.892305685e-17 -9.0595788434e-16 1.3433298645e-16 -0.75654835222 -2.2915413497 1.0514252306e-16 -0.38793298236 -1.0290925107 
-3.8163714155e-17 0.3782174284 1.1455987893 -1.9988368385e-16 0.77598237557 2.0584938312 -9.9920072216e-16 -1.7775384104 -4.4458162685 
6.8915112325e-17 -0.88109041277 -2.1663061115 1.5008523124e-16 0.88863587435 2.2225746594 -1.2212453271e-15 1.762445223 4.3332622877 
6.8068059955e-16 -1.3176510631 -2.7903329373 -2.7446731948e-16 -0.47627256668 -1.6683333824 0 0.65872669626 1.3949571694 
8.7219739449e-16 0.95268805314 3.337167398 -7.6606994255e-16 1.0841451097e-15 -1.0590597273e-15 2.368796897e-16 -2.4390364333e-16 -6.5319160531e-17 
-3.1916794516e-16 3.4915485397e-17 -5.4397781164e-16 -3.6777196412e-16 6.4867607208e-16 -9.2150084565e-16 
Continuous%20global%20L2-projection%20sigma_xz 1 60 double
1.0002807767 1.0002807767 1.0002807767 1.0002807767 -0.21826399002 -2.9314414838 1.0002807767 -0.22699221084 -2.6391780073 
1.0002807767 1.0002807767 1.0002807767 0.99992027486 0.99992027486 0.99992027486 0.99992027486 -0.34862304086 -2.3124916244 
0.99992027486 -0.38921968223 -2.200861807 0.99992027486 0.99992027486 0.99992027486 0.99988596581 0.99988596581 0.99988596581 
0.99988596581 0.68538285906 0.60527034694 0.99988596581 0.84924330961 0.27222076245 0.99988596581 0.99988596581 0.99988596581 
1.0000626108 1.0000626108 1.0000626108 1.0000626108 2.0627242627 3.6102665691 1.0000626108 2.0947147027 3.522301485 
1.0000626108 1.0000626108 1.0000626108 1.0000826677 1.0000826677 1.0000826677 1.0000826677 2.6010845115 4.6626512298 
1.0000826677 2.2099119897 5.2687725965 1.0000826677 1.0000826677 1.0000826677 
Continuous%20global%20L2-projection%20sigma_yx 1 60 double
3.0031140452e-18 -2.2287531036e-17 3.3744518684e-17 -2.4266970776e-19 3.0879540961e-17 -4.6763489005e-17 7.695803676e-18 -1.9120534993e-17 1.5111390559e-17 
-1.1248946748e-17 1.0187118273e-17 -8.7217685299e-18 -1.3493268728e-18 3.6281900358e-17 -5.1424346375e-17 -0.022243520245 0.0069658085704 0.036175137386 
-0.0099747981876 0.014841105789 0.039657009766 2.4187508008e-17 -1.8289814452e-17 1.4319649903e-17 -1.3558511176e-18 -3.8448461864e-17 5.4931261955e-17 
0.096163749695 0.10675427318 0.11734479666 0.08888428472 0.0090880468488 -0.070708191022 -4.0079894564e-17 1.4647271543e-17 1.294436695e-18 
5.2600053154e-17 2.2427506108e-17 -3.5409821241e-17 0.12431880832 0.060716837645 -0.002885133028 0.13682315499 0.037769511342 -0.061284132302 
-2.8908057582e-17 -2.1474557061e-17 8.5772875502e-18 -3.5896950908e-17 -9.3110025034e-18 1.7244637315e-17 6.9527522308e-17 1.0018901021e-17 -2.76756979e-17 
-5.1726760053e-17 5.3455259119e-18 -1.0074260372e-17 2.5271889657e-17 -6.9472564786e-18 9.0735692609e-18 
Continuous%20global%20L2-projection%20sigma_yy 1 60 double
17.436299808 11.930403689 6.42450757 17.678710362 11.382247839 5.0857853161 17.537324973 11.94032963 6.3433342866 
17.153486602 13.046734739 8.9399828761 16.740704467 11.674604976 6.682131484 16.34508664 11.464742556 6.6124199776 
15.5955626 10.788550629 5.9447311807 15.241431471 10.322018211 5.3465535302 15.380282186 10.267898052 5.2532388265 
15.249559902 11.056667473 6.7318747248 15.446097186 11.166268933 6.8375855554 15.773415732 10.48713386 5.4646922092 
13.878356871 8.3696102889 2.7365584816 15.13033367 10.155506049 5.0476388831 17.733820592 12.854824418 8.0379715328 
19.086111968 13.769057039 8.7181211195 12.97648504 7.4232323284 1.8699796166 15.288884169 9.3898462007 3.4908082321 
19.539085983 13.77441838 8.009750777 21.478164066 16.193692408 10.90922075 
Continuous%20global%20L2-projection%20sigma_yz 1 60 double
8.1172865415e-18 3.1809018595e-17 5.3484429742e-17 7.4675595536e-18 -0.13097357185 -0.10953050574 3.9649972567e-18 -0.044246917534 0.13991574112 
3.1954239482e-18 -1.0355845153e-17 5.1779225766e-18 2.438783385e-17 -6.5567291005e-17 -3.9180454381e-17 -6.1333138451e-17 0.14985856059 0.34391633838 
9.5409285387e-18 0.073233049577 -0.013819131162 -1.4802614616e-18 2.2636937326e-17 -5.7625086691e-17 1.9432486615e-17 1.7644927211e-17 4.2504411059e-17 
-2.5843167122e-17 0.1440361629 0.12970765242 -3.752130781e-17 0.1327398793 0.058631724073 3.6183180304e-17 -8.8315315516e-17 4.5352948331e-17 
8.0437615738e-18 -5.863006062e-17 1.4843413523e-16 -2.9407212802e-17 -0.11808960357 -0.27100850228 5.0805022821e-17 -0.057708160004 0.010889572902 
-4.8317753388e-17 1.1645817483e-16 -1.8977248705e-16 -2.2755122427e-17 7.4014868308e-17 -7.8640797578e-17 5.4762103393e-17 -0.25898352311 -0.23901127114 
0 -0.29129340981 -0.23841588336 -9.4662077555e-18 -6.4334311336e-17 7.3800519091e-17 
Continuous%20global%20L2-projection%20sigma_zx 1 60 double
-1.3380393359e-18 1.8052348534e-17 -3.0328143474e-17 1.9243800825e-17 -3.8015118808e-17 4.7733710009e-17 2.7458441689e-18 2.0765312196e-17 -5.5408432049e-17 
-1.2324819315e-17 -1.0247475088e-17 2.2527690147e-17 1.9990027746e-19 -3.3983047167e-17 6.8565795167e-17 -0.085223641247 0.025326855481 0.13587735221 
-0.094371958636 -0.0020881015807 0.090195755474 8.637589046e-19 1.3186771739e-17 -4.4947772453e-17 1.7133327753e-17 1.7181034304e-17 -3.6524800171e-17 
-0.12505303323 -0.029599003494 0.065855026245 0.018789805472 0.012320786715 0.0058517679572 -8.53000548e-18 -1.1884467466e-17 3.1739629127e-17 
1.0078765969e-17 -2.4411785684e-17 4.1985669073e-17 -0.029688712209 -0.039958566427 -0.050228420645 0.10755212232 -0.020178683102 -0.14790948853 
2.808211308e-17 3.3037780094e-18 -3.4309150201e-17 -3.2279254538e-19 1.4553631047e-17 -1.8054125576e-17 -1.4513395728e-18 -1.7189712068e-17 3.1594722476e-17 
7.0561265662e-18 -1.2335829028e-17 -6.0445562235e-17 -1.4321398393e-17 -1.112055613e-18 2.6097927775e-17 
Continuous%20global%20L2-projection%20sigma_zy 1 60 double
1.1447669888e-17 -1.9120178055e-17 1.1808173853e-17 8.7035293556e-18 -1.8018488248e-17 2.5329756186e-17 -9.2957519772e-19 1.9485896558e-18 -2.5859182223e-18 
4.0941668705e-17 -7.4989163136e-17 2.4422605458e-17 -1.6791623306e-17 -0.077941900201 0.12408418124 -8.7618769216e-18 -0.06181861397 -0.020203862926 
-1.9081857077e-17 0.03896510378 -0.062032783229 -6.6627894615e-17 0.12365577846 0.040413788623 4.1633363423e-17 -0.23376134338 -0.15687049526 
-4.7379139723e-17 0.047923114894 0.047323312881 3.752130781e-17 0.11686313756 0.078423480978 2.7755575616e-17 -0.095860610547 -0.094660826533 
-8.5085074944e-18 -0.11845753525 -0.16760374299 9.8024042672e-18 0.087896179869 -0.024455584138 -3.0021149849e-17 0.05921988228 0.083789299758 
1.9822668057e-17 -0.17581873561 0.048918506903 2.0743405477e-17 -1.0141920789e-17 4.7918551949e-17 -2.0670129243e-17 2.0283841578e-17 1.3074107558e-18 
1.8102267169e-17 -1.6680680698e-17 3.5090249653e-17 -2.0615956757e-17 4.5347774503e-17 -2.9109948e-17 
Continuous%20global%20L2-projection%20sigma_zz 1 60 double
17.436299808 11.930403689 6.42450757 17.678710362 11.23421269 5.3641297638 17.537324973 11.637656164 6.2913694685 
17.153486602 13.046734739 8.9399828761 16.740704467 11.703602737 6.6665010074 16.34508664 11.325581117 6.478252678 
15.5955626 10.809321208 6.019047698 15.241431471 10.325434812 5.4094381536 15.380282186 10.065982194 4.751682202 
15.249559902 11.034078191 6.610081037 15.446097186 11.430096469 7.0409216886 15.773415732 10.576818948 5.3802221652 
13.878356871 8.184385725 2.4904145793 15.13033367 10.170191324 5.0743722217 17.733820592 12.919631937 8.1086206199 
19.086111968 13.956343073 8.8265741772 12.97648504 7.4232323284 1.8699796166 15.288884169 9.4378103129 3.6968060617 
19.539085983 13.58792281 8.1604197702 21.478164066 16.193692408 10.90922075 
Continuous%20global%20L2-projection%20u_x,x 1 60 double
2.8507182652e-16 -1.3450626934e-16 1.0161443125e-16 -6.732987587e-16 4.1981159879e-16 -1.676060901e-16 2.1441672911e-16 2.6316435259e-17 -1.6118816596e-16 
8.2453873603e-17 -1.3182794028e-16 2.1878620876e-16 -4.4617741928e-16 2.2068990631e-16 -2.3508272629e-16 -0.32185685635 -0.6235126555 -0.92516845465 
-0.35099303722 -0.58467334509 -0.81835365295 -3.9193746747e-16 4.2909888129e-16 -5.3879742325e-16 4.6113431305e-16 -1.4284115211e-16 -3.8789150223e-16 
-0.86430603266 -1.2285369635 -1.5927678943 -0.86613884568 -1.2097789049 -1.5534189641 8.5785467547e-18 -3.1492265275e-16 4.5232103678e-16 
4.1867854496e-16 -2.2474455032e-16 9.9725705458e-16 -0.63440592587 -0.8053638041 -0.97632168233 -0.40636628866 -0.89649832249 -1.3866303563 
5.2860448151e-17 8.4576717041e-16 -1.0978928064e-15 8.3450479504e-17 -1.0811248967e-16 -2.0071491439e-16 -6.7694494256e-17 3.4888908118e-16 4.4941372061e-16 
-2.4032906227e-16 2.9277034225e-16 -8.8653491278e-16 5.5677993001e-17 -2.988670989e-16 5.301112326e-16 
Continuous%20global%20L2-projection%20u_x,y 1 60 double
1.3434613826e-17 -1.5430339383e-17 -1.6910553649e-16 -1.0034577637e-16 2.8883607867e-16 -2.3486583681e-16 1.6537348915e-17 1.178461137e-16 2.576035342e-16 
-8.2686744575e-18 -5.892305685e-17 -9.0595788434e-16 1.3433298645e-16 -0.75654835222 -2.2915413497 1.0514252306e-16 -0.38793298236 -1.0290925107 
-3.8163714155e-17 0.3782174284 1.1455987893 -1.9988368385e-16 0.77598237557 2.0584938312 -9.9920072216e-16 -1.7775384104 -4.4458162685 
6.8915112325e-17 -0.88109041277 -2.1663061115 1.5008523124e-16 0.88863587435 2.2225746594 -1.2212453271e-15 1.762445223 4.3332622877 
6.8068059955e-16 -1.3176510631 -2.7903329373 -2.7446731948e-16 -0.47627256668 -1.6683333824 0 0.65872669626 1.3949571694 
8.7219739449e-16 0.95268805314 3.337167398 -7.6606994255e-16 1.0841451097e-15 -1.0590597273e-15 2.368796897e-16 -2.4390364333e-16 -6.5319160531e-17 
-3.1916794516e-16 3.4915485397e-17 -5.4397781164e-16 -3.6777196412e-16 6.4867607208e-16 -9.2150084565e-16 
Continuous%20global%20L2-projection%20u_x,z 1 60 double
1.0002807767 1.0002807767 1.0002807767 1.0002807767 -0.21826399002 -2.9314414838 1.0002807767 -0.22699221084 -2.6391780073 
1.0002807767 1.0002807767 1.0002807767 0.99992027486 0.99992027486 0.99992027486 0.99992027486 -0.34862304086 -2.3124916244 
0.99992027486 -0.38921968223 -2.200861807 0.99992027486 0.99992027486 0.99992027486 0.99988596581 0.99988596581 0.99988596581 
0.99988596581 0.68538285906 0.60527034694 0.99988596581 0.84924330961 0.27222076245 0.99988596581 0.99988596581 0.99988596581 
1.0000626108 1.0000626108 1.0000626108 1.0000626108 2.0627242627 3.6102665691 1.0000626108 2.0947147027 3.522301485 
1.0000626108 1.0000626108 1.0000626108 1.0000826677 1.0000826677 1.0000826677 1.0000826677 2.6010845115 4.6626512298 
1.0000826677 2.2099119897 5.2687725965 1.0000826677 1.0000826677 1.0000826677 
Continuous%20global%20L2-projection%20u_y,x 1 60 double
3.0031140452e-18 -2.2287531036e-17 3.3744518684e-17 -2.4266970776e-19 3.0879540961e-17 -4.6763489005e-17 7.695803676e-18 -1.9120534993e-17 1.5111390559e-17 
-1.1248946748e-17 1.0187118273e-17 -8.7217685299e-18 -1.3493268728e-18 3.6281900358e-17 -5.1424346375e-17 -0.022243520245 0.0069658085704 0.036175137386 
-0.0099747981876 0.014841105789 0.039657009766 2.4187508008e-17 -1.8289814452e-17 1.4319649903e-17 -1.3558511176e-18 -3.8448461864e-17 5.4931261955e-17 
0.096163749695 0.10675427318 0.11734479666 0.08888428472 0.0090880468488 -0.070708191022 -4.0079894564e-17 1.4647271543e-17 1.294436695e-18 
5.2600053154e-17 2.2427506108e-17 -3.5409821241e-17 0.12431880832 0.060716837645 -0.002885133028 0.13682315499 0.037769511342 -0.061284132302 
-2.8908057582e-17 -2.1474557061e-17 8.5772875502e-18 -3.5896950908e-17 -9.3110025034e-18 1.7244637315e-17 6.9527522308e-17 1.0018901021e-17 -2.76756979e-17 
-5.1726760053e-17 5.3455259119e-18 -1.0074260372e-17 2.5271889657e-17 -6.9472564786e-18 9.0735692609e-18 
Continuous%20global%20L2-projection%20u_y,y 1 60 double
-1.8449256413e-17 1.5482503699e-18 4.7563547614e-17 1.400030575e-17 -2.0725913677e-17 -9.9845558157e-18 -1.5082749747e-17 2.5887499463e-17 -4.1772894587e-18 
1.2203444215e-17 -1.6413196683e-17 1.6833794275e-17 3.5682199526e-17 -0.028997761027 0.015630476616 -2.5738013457e-17 0.0017080444933 0.031437594797 
2.1467089212e-17 0.014496705429 -0.0078140658863 -1.7958299721e-17 -0.0034166015363 -0.062884623381 -4.1633363423e-17 0.201915858 0.50155662451 
3.0150361642e-17 0.044835817045 -0.042228686035 -4.6901634762e-17 -0.10094278356 -0.25074069115 6.9388939039e-18 -0.089685088412 0.084470044046 
1.0210208993e-16 0.18522456398 0.24614390227 -5.8814425603e-17 0.093628968977 0.054218393947 1.8474553753e-17 -0.092598388535 -0.1230534882 
3.9645336113e-17 -0.18728603412 -0.10845305774 -5.6704670507e-17 7.9492049949e-17 -1.4395128751e-16 3.0142614166e-17 -4.7961797435e-17 6.5857970104e-17 
1.0084718931e-17 -3.3610150993e-17 -1.385252362e-17 -4.4362758254e-17 1.0932366088e-16 -3.9333030883e-17 
Continuous%20global%20L2-projection%20u_y,z 1 60 double
8.1172865415e-18 3.1809018595e-17 5.3484429742e-17 7.4675595536e-18 -0.13097357185 -0.10953050574 3.9649972567e-18 -0.044246917534 0.13991574112 
3.1954239482e-18 -1.0355845153e-17 5.1779225766e-18 2.438783385e-17 -6.5567291005e-17 -3.9180454381e-17 -6.1333138451e-17 0.14985856059 0.34391633838 
9.5409285387e-18 0.073233049577 -0.013819131162 -1.4802614616e-18 2.2636937326e-17 -5.7625086691e-17 1.9432486615e-17 1.7644927211e-17 4.2504411059e-17 
-2.5843167122e-17 0.1440361629 0.12970765242 -3.752130781e-17 0.1327398793 0.058631724073 3.6183180304e-17 -8.8315315516e-17 4.5352948331e-17 
8.0437615738e-18 -5.863006062e-17 1.4843413523e-16 -2.9407212802e-17 -0.11808960357 -0.27100850228 5.0805022821e-17 -0.057708160004 0.010889572902 
-4.8317753388e-17 1.1645817483e-16 -1.8977248705e-16 -2.2755122427e-17 7.4014868308e-17 -7.8640797578e-17 5.4762103393e-17 -0.25898352311 -0.23901127114 
0 -0.29129340981 -0.23841588336 -9.4662077555e-18 -6.4334311336e-17 7.3800519091e-17 
Continuous%20global%20L2-projection%20u_z,x 1 60 double
-1.3380393359e-18 1.8052348534e-17 -3.0328143474e-17 1.9243800825e-17 -3.8015118808e-17 4.7733710009e-17 2.7458441689e-18 2.0765312196e-17 -5.5408432049e-17 
-1.2324819315e-17 -1.0247475088e-17 2.2527690147e-17 1.9990027746e-19 -3.3983047167e-17 6.8565795167e-17 -0.085223641247 0.025326855481 0.13587735221 
-0.094371958636 -0.0020881015807 0.090195755474 8.637589046e-19 1.3186771739e-17 -4.4947772453e-17 1.7133327753e-17 1.7181034304e-17 -3.6524800171e-17 
-0.12505303323 -0.029599003494 0.065855026245 0.018789805472 0.012320786715 0.0058517679572 -8.53000548e-18 -1.1884467466e-17 3.1739629127e-17 
1.0078765969e-17 -2.4411785684e-17 4.1985669073e-17 -0.029688712209 -0.039958566427 -0.050228420645 0.10755212232 -0.020178683102 -0.14790948853 
2.808211308e-17 3.3037780094e-18 -3.4309150201e-17 -3.2279254538e-19 1.4553631047e-17 -1.8054125576e-17 -1.4513395728e-18 -1.7189712068e-17 3.1594722476e-17 
7.0561265662e-18 -1.2335829028e-17 -6.0445562235e-17 -1.4321398393e-17 -1.112055613e-18 2.6097927775e-17 
Continuous%20global%20L2-projection%20u_z,y 1 60 double
1.1447669888e-17 -1.9120178055e-17 1.1808173853e-17 8.7035293556e-18 -1.8018488248e-17 2.5329756186e-17 -9.2957519772e-19 1.9485896558e-18 -2.5859182223e-18 
4.0941668705e-17 -7.4989163136e-17 2.4422605458e-17 -1.6791623306e-17 -0.077941900201 0.12408418124 -8.7618769216e-18 -0.06181861397 -0.020203862926 
-1.9081857077e-17 0.03896510378 -0.062032783229 -6.6627894615e-17 0.12365577846 0.040413788623 4.1633363423e-17 -0.23376134338 -0.15687049526 
-4.7379139723e-17 0.047923114894 0.047323312881 3.752130781e-17 0.11686313756 0.078423480978 2.7755575616e-17 -0.095860610547 -0.094660826533 
-8.5085074944e-18 -0.11845753525 -0.16760374299 9.8024042672e-18 0.087896179869 -0.024455584138 -3.0021149849e-17 0.05921988228 0.083789299758 
1.9822668057e-17 -0.17581873561 0.048918506903 2.0743405477e-17 -1.0141920789e-17 4.7918551949e-17 -2.0670129243e-17 2.0283841578e-17 1.3074107558e-18 
1.8102267169e-17 -1.6680680698e-17 3.5090249653e-17 -2.0615956757e-17 4.5347774503e-17 -2.9109948e-17 
Continuous%20global%20L2-projection%20u_z,z 1 60 double
7.2871496619e-18 6.3714054487e-17 -4.101451628e-18 4.9783730357e-18 -0.14803514971 0.27834444772 -6.3439956108e-17 -0.30267346545 -0.051964818155 