# vtk DataFile Version 5.1
vtk output
ASCII
DATASET UNSTRUCTURED_GRID
POINTS 81 double
0 0 0 0 0.25 0 0 0.5 0 
0 0.75 0 0 1 0 0 1.25 0 
0 1.5 0 0 1.75 0 0 2 0 
0.25 0 0 0.25 0.25 0 0.25 0.5 0 
0.25 0.75 0 0.25 1 0 0.25 1.25 0 
0.25 1.5 0 0.25 1.75 0 0.25 2 0 
0.5 0 0 0.5 0.25 0 0.5 0.5 0 
0.5 0.75 0 0.5 1 0 0.5 1.25 0 
0.5 1.5 0 0.5 1.75 0 0.5 2 0 
0.75 0 0 0.75 0.25 0 0.75 0.5 0 
0.75 0.75 0 0.75 1 0 0.75 1.25 0 
0.75 1.5 0 0.75 1.75 0 0.75 2 0 
1 0 0 1 0.25 0 1 0.5 0 
1 0.75 0 1 1 0 1 1.25 0 
1 1.5 0 1 1.75 0 1 2 0 
1.25 0 0 1.25 0.25 0 1.25 0.5 0 
1.25 0.75 0 1.25 1 0 1.25 1.25 0 
1.25 1.5 0 1.25 1.75 0 1.25 2 0 
1.5 0 0 1.5 0.25 0 1.5 0.5 0 
1.5 0.75 0 1.5 1 0 1.5 1.25 0 
1.5 1.5 0 1.5 1.75 0 1.5 2 0 
1.75 0 0 1.75 0.25 0 1.75 0.5 0 
1.75 0.75 0 1.75 1 0 1.75 1.25 0 
1.75 1.5 0 1.75 1.75 0 1.75 2 0 
2 0 0 2 0.25 0 2 0.5 0 
2 0.75 0 2 1 0 2 1.25 0 
2 1.5 0 2 1.75 0 2 2 0 

CELLS 65 256
OFFSETS vtktypeint64
0 4 8 12 16 20 24 28 32 
36 40 44 48 52 56 60 64 68 
72 76 80 84 88 92 96 100 104 
108 112 116 120 124 128 132 136 140 
144 148 152 156 160 164 168 172 176 
180 184 188 192 196 200 204 208 212 
216 220 224 228 232 236 240 244 248 
252 256 
CONNECTIVITY vtktypeint64
0 9 10 1 1 10 11 2 2 
11 12 3 3 12 13 4 4 13 
14 5 5 14 15 6 6 15 16 
7 7 16 17 8 9 18 19 10 
10 19 20 11 11 20 21 12 12 
21 22 13 13 22 23 14 14 23 
24 15 15 24 25 16 16 25 26 
17 18 27 28 19 19 28 29 20 
20 29 30 21 21 30 31 22 22 
31 32 23 23 32 33 24 24 33 
34 25 25 34 35 26 27 36 37 
28 28 37 38 29 29 38 39 30 
30 39 40 31 31 40 41 32 32 
41 42 33 33 42 43 34 34 43 
44 35 36 45 46 37 37 46 47 
38 38 47 48 39 39 48 49 40 
40 49 50 41 41 50 51 42 42 
51 52 43 43 52 53 44 45 54 
55 46 46 55 56 47 47 56 57 
48 48 57 58 49 49 58 59 50 
50 59 60 51 51 60 61 52 52 
61 62 53 54 63 64 55 55 64 
65 56 56 65 66 57 57 66 67 
58 58 67 68 59 59 68 69 60 
60 69 70 61 61 70 71 62 63 
72 73 64 64 73 74 65 65 74 
75 66 66 75 76 67 67 76 77 
68 68 77 78 69 69 78 79 70 
70 79 80 71 
CELL_TYPES 64
9
9
9
9
9
9
9
9
9
9
9
9
9
9
9
9
9
9
9
9
9
9
9
9
9
9
9
9
9
9
9
9
9
9
9
9
9
9
9
9
9
9
9
9
9
9
9
9
9
9
9
9
9
9
9
9
9
9
9
9
9
9
9
9

POINT_DATA 81
FIELD FieldData 1
Mode%20Shape 3 81 double
0 0 150.15749758 0 0 142.75758277 0 0 68.395539602 
0 0 -67.000327069 0 0 -4.3148431166 0 0 -16.243420784 
0 0 -122.55420587 0 0 -152.48685334 0 0 0 
0 0 238.06255071 0 0 202.23572939 0 0 51.622548367 
0 0 47.171468209 0 0 30.242188 0 0 -72.262824505 
0 0 22.970634983 0 0 -123.35881651 0 0 0 
0 0 194.19172936 0 0 69.164082925 0 0 82.630684861 
0 0 -11.58943548 0 0 17.740915872 0 0 21.639228723 
0 0 -84.151316674 0 0 9.6596000128 0 0 0 
0 0 26.354534888 0 0 62.078767239 0 0 44.289954674 
0 0 50.694798059 0 0 5.768669686 0 0 -37.532220416 
0 0 39.038729923 0 0 -45.4491986 0 0 0 
0 0 95.748608695 0 0 50.434803418 0 0 -40.402903943 
0 0 19.522019276 0 0 55.703950861 0 0 19.235577435 
0 0 -11.743612935 0 0 -34.740527585 0 0 0 
0 0 -128.3102489 0 0 -5.3705282849 0 0 -11.070510419 
0 0 -39.952513895 0 0 34.313628393 0 0 31.03216105 
0 0 -40.050561651 0 0 -28.448569456 0 0 0 
0 0 -42.048383939 0 0 -162.22586503 0 0 -74.154533333 
0 0 -84.45766859 0 0 -15.554880239 0 0 -5.3814548571 
0 0 -84.826308368 0 0 11.234905525 0 0 0 
0 0 -188.99505307 0 0 -55.941257293 0 0 -200.42965644 
0 0 -84.217201168 0 0 -39.176291565 0 0 -68.212747062 
0 0 -65.11403985 0 0 -113.5695583 0 0 0 
0 0 -164.31821155 0 0 -38.756488223 0 0 -235.27150304 
0 0 -163.28007248 0 0 -26.545409461 0 0 6.3706185285 
0 0 -33.308735739 0 0 -109.49690774 0 0 0 

