# vtk DataFile Version 5.1
vtk output
ASCII
DATASET UNSTRUCTURED_GRID
POINTS 81 double
0 0 0 0 0.25 0 0 0.5 0 
0 0.75 0 0 1 0 0 1.25 0 
0 1.5 0 0 1.75 0 0 2 0 
0.25 0 0 0.25 0.25 0 0.25 0.5 0 
0.25 0.75 0 0.25 1 0 0.25 1.25 0 
0.25 1.5 0 0.25 1.75 0 0.25 2 0 
0.5 0 0 0.5 0.25 0 0.5 0.5 0 
0.5 0.75 0 0.5 1 0 0.5 1.25 0 
0.5 1.5 0 0.5 1.75 0 0.5 2 0 
0.75 0 0 0.75 0.25 0 0.75 0.5 0 
0.75 0.75 0 0.75 1 0 0.75 1.25 0 
0.75 1.5 0 0.75 1.75 0 0.75 2 0 
1 0 0 1 0.25 0 1 0.5 0 
1 0.75 0 1 1 0 1 1.25 0 
1 1.5 0 1 1.75 0 1 2 0 
1.25 0 0 1.25 0.25 0 1.25 0.5 0 
1.25 0.75 0 1.25 1 0 1.25 1.25 0 
1.25 1.5 0 1.25 1.75 0 1.25 2 0 
1.5 0 0 1.5 0.25 0 1.5 0.5 0 
1.5 0.75 0 1.5 1 0 1.5 1.25 0 
1.5 1.5 0 1.5 1.75 0 1.5 2 0 
1.75 0 0 1.75 0.25 0 1.75 0.5 0 
1.75 0.75 0 1.75 1 0 1.75 1.25 0 
1.75 1.5 0 1.75 1.75 0 1.75 2 0 
2 0 0 2 0.25 0 2 0.5 0 
2 0.75 0 2 1 0 2 1.25 0 
2 1.5 0 2 1.75 0 2 2 0 

CELLS 65 256
OFFSETS vtktypeint64
0 4 8 12 16 20 24 28 32 
36 40 44 48 52 56 60 64 68 
72 76 80 84 88 92 96 100 104 
108 112 116 120 124 128 132 136 140 
144 148 152 156 160 164 168 172 176 
180 184 188 192 196 200 204 208 212 
216 220 224 228 232 236 240 244 248 
252 256 
CONNECTIVITY vtktypeint64
0 9 10 1 1 10 11 2 2 
11 12 3 3 12 13 4 4 13 
14 5 5 14 15 6 6 15 16 
7 7 16 17 8 9 18 19 10 
10 19 20 11 11 20 21 12 12 
21 22 13 13 22 23 14 14 23 
24 15 15 24 25 16 16 25 26 
17 18 27 28 19 19 28 29 20 
20 29 30 21 21 30 31 22 22 
31 32 23 23 32 33 24 24 33 
34 25 25 34 35 26 27 36 37 
28 28 37 38 29 29 38 39 30 
30 39 40 31 31 40 41 32 32 
41 42 33 33 42 43 34 34 43 
44 35 36 45 46 37 37 46 47 
38 38 47 48 39 39 48 49 40 
40 49 50 41 41 50 51 42 42 
51 52 43 43 52 53 44 45 54 
55 46 46 55 56 47 47 56 57 
48 48 57 58 49 49 58 59 50 
50 59 60 51 51 60 61 52 52 
61 62 53 54 63 64 55 55 64 
65 56 56 65 66 57 57 66 67 
58 58 67 68 59 59 68 69 60 
60 69 70 61 61 70 71 62 63 
72 73 64 64 73 74 65 65 74 
75 66 66 75 76 67 67 76 77 
68 68 77 78 69 69 78 79 70 
70 79 80 71 
CELL_TYPES 64
9
9
9
9
9
9
9
9
9
9
9
9
9
9
9
9
9
9
9
9
9
9
9
9
9
9
9
9
9
9
9
9
9
9
9
9
9
9
9
9
9
9
9
9
9
9
9
9
9
9
9
9
9
9
9
9
9
9
9
9
9
9
9
9

POINT_DATA 81
FIELD FieldData 1
Mode%20Shape 3 81 double
0 0 66.647972907 0 0 63.363461783 0 0 30.357062177 
0 0 -29.73982245 0 0 -1.9160722086 0 0 -7.210579328 
0 0 -54.398047771 0 0 -67.683932948 0 0 0 
0 0 105.66533183 0 0 89.763404783 0 0 22.912112692 
0 0 20.936582713 0 0 13.422453569 0 0 -32.075446824 
0 0 10.195059256 0 0 -54.754715377 0 0 0 
0 0 86.192974232 0 0 30.697762883 0 0 36.675279177 
0 0 -5.1451946141 0 0 7.8735950482 0 0 9.6040654148 
0 0 -37.352089465 0 0 4.287170009 0 0 0 
0 0 11.69439497 0 0 27.552492629 0 0 19.657158326 
0 0 22.500293026 0 0 2.5595390724 0 0 -16.65984716 
0 0 17.327255556 0 0 -20.173416631 0 0 0 
0 0 42.497289101 0 0 22.384239349 0 0 -17.934788029 
0 0 8.6638320496 0 0 24.723833015 0 0 8.5371639494 
0 0 -5.213059632 0 0 -15.420250465 0 0 0 
0 0 -56.953961386 0 0 -2.3855090129 0 0 -4.9153345447 
0 0 -17.734684264 0 0 15.229426997 0 0 13.773162299 
0 0 -17.777449736 0 0 -12.627496914 0 0 0 
0 0 -18.665297272 0 0 -72.007668494 0 0 -32.91590985 
0 0 -37.488920005 0 0 -6.9053952984 0 0 -2.3895201641 
0 0 -37.651721356 0 0 4.9864460392 0 0 0 
0 0 -83.889156432 0 0 -24.831663946 0 0 -88.964772757 
0 0 -37.382371817 0 0 -17.39020227 0 0 -30.278036011 
0 0 -28.902256597 0 0 -50.409456092 0 0 0 
0 0 -72.935895735 0 0 -17.203987771 0 0 -104.42956582 
0 0 -72.475334638 0 0 -11.784198977 0 0 2.8264356574 
0 0 -14.785105009 0 0 -48.601782012 0 0 0 

