# vtk DataFile Version 5.1
vtk output
ASCII
DATASET UNSTRUCTURED_GRID
POINTS 81 double
0 0 0 0 0.125 0 0 0.25 0 
0 0.375 0 0 0.5 0 0 0.625 0 
0 0.75 0 0 0.875 0 0 1 0 
0.125 0 0 0.125 0.125 0 0.125 0.25 0 
0.125 0.375 0 0.125 0.5 0 0.125 0.625 0 
0.125 0.75 0 0.125 0.875 0 0.125 1 0 
0.25 0 0 0.25 0.125 0 0.25 0.25 0 
0.25 0.375 0 0.25 0.5 0 0.25 0.625 0 
0.25 0.75 0 0.25 0.875 0 0.25 1 0 
0.375 0 0 0.375 0.125 0 0.375 0.25 0 
0.375 0.375 0 0.375 0.5 0 0.375 0.625 0 
0.375 0.75 0 0.375 0.875 0 0.375 1 0 
0.5 0 0 0.5 0.125 0 0.5 0.25 0 
0.5 0.375 0 0.5 0.5 0 0.5 0.625 0 
0.5 0.75 0 0.5 0.875 0 0.5 1 0 
0.625 0 0 0.625 0.125 0 0.625 0.25 0 
0.625 0.375 0 0.625 0.5 0 0.625 0.625 0 
0.625 0.75 0 0.625 0.875 0 0.625 1 0 
0.75 0 0 0.75 0.125 0 0.75 0.25 0 
0.75 0.375 0 0.75 0.5 0 0.75 0.625 0 
0.75 0.75 0 0.75 0.875 0 0.75 1 0 
0.875 0 0 0.875 0.125 0 0.875 0.25 0 
0.875 0.375 0 0.875 0.5 0 0.875 0.625 0 
0.875 0.75 0 0.875 0.875 0 0.875 1 0 
1 0 0 1 0.125 0 1 0.25 0 
1 0.375 0 1 0.5 0 1 0.625 0 
1 0.75 0 1 0.875 0 1 1 0 

CELLS 65 256
OFFSETS vtktypeint64
0 4 8 12 16 20 24 28 32 
36 40 44 48 52 56 60 64 68 
72 76 80 84 88 92 96 100 104 
108 112 116 120 124 128 132 136 140 
144 148 152 156 160 164 168 172 176 
180 184 188 192 196 200 204 208 212 
216 220 224 228 232 236 240 244 248 
252 256 
CONNECTIVITY vtktypeint64
0 9 10 1 1 10 11 2 2 
11 12 3 3 12 13 4 4 13 
14 5 5 14 15 6 6 15 16 
7 7 16 17 8 9 18 19 10 
10 19 20 11 11 20 21 12 12 
21 22 13 13 22 23 14 14 23 
24 15 15 24 25 16 16 25 26 
17 18 27 28 19 19 28 29 20 
20 29 30 21 21 30 31 22 22 
31 32 23 23 32 33 24 24 33 
34 25 25 34 35 26 27 36 37 
28 28 37 38 29 29 38 39 30 
30 39 40 31 31 40 41 32 32 
41 42 33 33 42 43 34 34 43 
44 35 36 45 46 37 37 46 47 
38 38 47 48 39 39 48 49 40 
40 49 50 41 41 50 51 42 42 
51 52 43 43 52 53 44 45 54 
55 46 46 55 56 47 47 56 57 
48 48 57 58 49 49 58 59 50 
50 59 60 51 51 60 61 52 52 
61 62 53 54 63 64 55 55 64 
65 56 56 65 66 57 57 66 67 
58 58 67 68 59 59 68 69 60 
60 69 70 61 61 70 71 62 63 
72 73 64 64 73 74 65 65 74 
75 66 66 75 76 67 67 76 77 
68 68 77 78 69 69 78 79 70 
70 79 80 71 
CELL_TYPES 64
9
9
9
9
9
9
9
9
9
9
9
9
9
9
9
9
9
9
9
9
9
9
9
9
9
9
9
9
9
9
9
9
9
9
9
9
9
9
9
9
9
9
9
9
9
9
9
9
9
9
9
9
9
9
9
9
9
9
9
9
9
9
9
9

POINT_DATA 81
FIELD FieldData 3
theta 1 81 double
0 0 0 0 0 0 0 0 0 
0 4.6201284071e-06 1.900468615e-05 4.3173847273e-05 7.7162013631e-05 0.00012101613089 0.0001747853611 0.00023849927657 0.0003121260017 
0 3.8497062804e-05 0.00015503720562 0.00034965594854 0.00062242298807 0.00097344127272 0.0014028304107 0.0019106883843 0.0024970080136 
0 0.00013090019125 0.00052515143914 0.0011827946105 0.0021039341882 0.0032887422813 0.0047374468803 0.0064502874958 0.0084274020458 
0 0.00031112281218 0.0012464521198 0.0028060194153 0.0049899571906 0.0077985142431 0.011232064605 0.015291093372 0.019976064109 
0 0.0006084900453 0.0024361153627 0.0054828818153 0.0097489326245 0.015234575142 0.021940339666 0.029867039884 0.039015750212 
0 0.0010523571885 0.0042113954053 0.0094770874144 0.016849556209 0.026329109396 0.037916341905 0.051612399156 0.067419216366 
0 0.0016720920646 0.0066896051625 0.015052498202 0.026760844193 0.041814835511 0.060214923356 0.081962054951 0.10705921858 
0 0.0024970080136 0.0099880320543 0.022473072122 0.039952128217 0.062425200339 0.089892288488 0.12235339266 0.15980851287 

theta_x 1 81 double
0 -2.1546191724e-05 -8.2005104687e-05 -0.00018120586643 -0.00031887652844 -0.00049466114479 -0.00070821271538 -0.00095936989235 -0.0012485040068 
0 0.00012974564281 0.00052318878559 0.0011804757157 0.0021018854883 0.0032878245116 0.0047387552767 0.0064550398575 0.0084365981325 
0 0.0004749783446 0.0019040629708 0.0042873419254 0.007625099217 0.011917834802 0.017166254197 0.023371159046 0.030533171646 
0 0.0010613463006 0.0042491294852 0.0095633371543 0.017004228796 0.026572403486 0.038268888159 0.052095228881 0.068053205403 
0 0.0018809678318 0.0075264373704 0.016936266086 0.030110622487 0.047050079333 0.06775591107 0.092230427259 0.12047739098 
0 0.0029357220381 0.011743091847 0.026421856885 0.046971986243 0.073393772073 0.10568821458 0.14385828399 0.18790959005 
0 0.0042241999826 0.016893196687 0.038006768575 0.067564628634 0.10556633313 0.15201167504 0.20690165392 0.27024594095 
0 0.0057543426844 0.023009401625 0.051765256048 0.092021412153 0.14377656094 0.20702841325 0.28177227464 0.36800575209 
0 0.0074785703118 0.029902766329 0.067273205782 0.11958920271 0.18684921137 0.26904813611 0.36617649051 0.4781770346 

theta_y 1 81 double
0 0 0 0 0 0 0 0 0 
-2.069760018e-06 7.6005348949e-05 0.00015418762311 0.00023258791608 0.00031131935981 0.00039044900069 0.00046993375496 0.00054940913159 0.00062851195469 
-4.1569119244e-06 0.00062012732361 0.00124458355 0.00186945572 0.0024950271686 0.0031215116422 0.0037489405011 0.0043767529225 0.0050042252563 
-6.1803309459e-06 0.0021005865442 0.0042075071184 0.0063149921603 0.00842358789 0.010533805966 0.012645982463 0.014759746117 0.016874106127 
-7.8758207605e-06 0.0049858057534 0.0099795091324 0.014973830753 0.019969668618 0.024967992028 0.029969816475 0.034975641229 0.039984320259 
-8.7404917403e-06 0.0097444886958 0.019497499923 0.029251048403 0.039006362034 0.04876496586 0.058528868148 0.068300696979 0.078080087429 
-8.0760196931e-06 0.016845641173 0.033698881948 0.050552434367 0.067407657558 0.084266323708 0.10113154247 0.11800969381 0.13490227745 
-5.1535664424e-06 0.026758484292 0.053521613012 0.080284834041 0.10704903172 0.13381576951 0.16058688444 0.18737394593 0.2141868872 
-2.7755575616e-18 0.039952128217 0.079904256434 0.11985638465 0.15980851287 0.19976064109 0.2397127693 0.27966489752 0.31961702574 

