# vtk DataFile Version 5.1
vtk output
ASCII
DATASET UNSTRUCTURED_GRID
POINTS 81 double
0 0 0 0 0.125 0 0 0.25 0 
0 0.375 0 0 0.5 0 0 0.625 0 
0 0.75 0 0 0.875 0 0 1 0 
0.125 0 0 0.125 0.125 0 0.125 0.25 0 
0.125 0.375 0 0.125 0.5 0 0.125 0.625 0 
0.125 0.75 0 0.125 0.875 0 0.125 1 0 
0.25 0 0 0.25 0.125 0 0.25 0.25 0 
0.25 0.375 0 0.25 0.5 0 0.25 0.625 0 
0.25 0.75 0 0.25 0.875 0 0.25 1 0 
0.375 0 0 0.375 0.125 0 0.375 0.25 0 
0.375 0.375 0 0.375 0.5 0 0.375 0.625 0 
0.375 0.75 0 0.375 0.875 0 0.375 1 0 
0.5 0 0 0.5 0.125 0 0.5 0.25 0 
0.5 0.375 0 0.5 0.5 0 0.5 0.625 0 
0.5 0.75 0 0.5 0.875 0 0.5 1 0 
0.625 0 0 0.625 0.125 0 0.625 0.25 0 
0.625 0.375 0 0.625 0.5 0 0.625 0.625 0 
0.625 0.75 0 0.625 0.875 0 0.625 1 0 
0.75 0 0 0.75 0.125 0 0.75 0.25 0 
0.75 0.375 0 0.75 0.5 0 0.75 0.625 0 
0.75 0.75 0 0.75 0.875 0 0.75 1 0 
0.875 0 0 0.875 0.125 0 0.875 0.25 0 
0.875 0.375 0 0.875 0.5 0 0.875 0.625 0 
0.875 0.75 0 0.875 0.875 0 0.875 1 0 
1 0 0 1 0.125 0 1 0.25 0 
1 0.375 0 1 0.5 0 1 0.625 0 
1 0.75 0 1 0.875 0 1 1 0 

CELLS 65 256
OFFSETS vtktypeint64
0 4 8 12 16 20 24 28 32 
36 40 44 48 52 56 60 64 68 
72 76 80 84 88 92 96 100 104 
108 112 116 120 124 128 132 136 140 
144 148 152 156 160 164 168 172 176 
180 184 188 192 196 200 204 208 212 
216 220 224 228 232 236 240 244 248 
252 256 
CONNECTIVITY vtktypeint64
0 9 10 1 1 10 11 2 2 
11 12 3 3 12 13 4 4 13 
14 5 5 14 15 6 6 15 16 
7 7 16 17 8 9 18 19 10 
10 19 20 11 11 20 21 12 12 
21 22 13 13 22 23 14 14 23 
24 15 15 24 25 16 16 25 26 
17 18 27 28 19 19 28 29 20 
20 29 30 21 21 30 31 22 22 
31 32 23 23 32 33 24 24 33 
34 25 25 34 35 26 27 36 37 
28 28 37 38 29 29 38 39 30 
30 39 40 31 31 40 41 32 32 
41 42 33 33 42 43 34 34 43 
44 35 36 45 46 37 37 46 47 
38 38 47 48 39 39 48 49 40 
40 49 50 41 41 50 51 42 42 
51 52 43 43 52 53 44 45 54 
55 46 46 55 56 47 47 56 57 
48 48 57 58 49 49 58 59 50 
50 59 60 51 51 60 61 52 52 
61 62 53 54 63 64 55 55 64 
65 56 56 65 66 57 57 66 67 
58 58 67 68 59 59 68 69 60 
60 69 70 61 61 70 71 62 63 
72 73 64 64 73 74 65 65 74 
75 66 66 75 76 67 67 76 77 
68 68 77 78 69 69 78 79 70 
70 79 80 71 
CELL_TYPES 64
9
9
9
9
9
9
9
9
9
9
9
9
9
9
9
9
9
9
9
9
9
9
9
9
9
9
9
9
9
9
9
9
9
9
9
9
9
9
9
9
9
9
9
9
9
9
9
9
9
9
9
9
9
9
9
9
9
9
9
9
9
9
9
9

POINT_DATA 81
FIELD FieldData 3
theta 1 81 double
0 0 0 0 0 0 0 0 0 
0 8.380696712e-06 3.3888841458e-05 7.6538722058e-05 0.00013635430888 0.00021336794612 0.00030761304163 0.00041910891331 0.0005478326724 
0 6.8117728372e-05 0.00027320259083 0.00061527987012 0.0010943981143 0.0017106281914 0.0024640512577 0.0033547319365 0.0043826613792 
0 0.00023057609554 0.00092338407631 0.0020784533678 0.0036958567383 0.0057757125094 0.0083181752834 0.0113234035 0.014791482155 
0 0.00054713719967 0.0021899109625 0.0049283447387 0.0087625307915 0.013692640115 0.019718926144 0.02684171146 0.035061291034 
0 0.0010692040733 0.004278309401 0.0096273220702 0.017116341775 0.026745579536 0.038515395194 0.052426329939 0.06847908405 
0 0.0018481998464 0.0073941577778 0.016637857098 0.02957938328 0.0462189479 0.066556955275 0.090594174825 0.11833185724 
0 0.002935554993 0.011743071558 0.026422522046 0.046973955778 0.073397503406 0.10569347131 0.14386250023 0.18790660663 
0 0.0043826613792 0.017530645517 0.039443952413 0.070122582067 0.10956653448 0.15777580965 0.21475040758 0.28049032827 

theta_x 1 81 double
0 -3.5662683858e-05 -0.00013973007575 -0.00031208139524 -0.00055252715227 -0.00086082185737 -0.0012367297086 -0.001680145701 -0.0021913306896 
0 0.00022992228884 0.00092262374794 0.0020782083937 0.0036968706101 0.0057788902225 0.0083245810584 0.011334181898 0.014807622805 
0 0.0008358962587 0.0033464704947 0.0075317868772 0.01339204315 0.020927582647 0.030138883605 0.041026476279 0.053590757991 
0 0.0018649529215 0.0074624007988 0.016792339007 0.02985494823 0.04665063992 0.06718010905 0.09144438721 0.11944461268 
0 0.0033030092941 0.013213792604 0.029732254876 0.05285851314 0.082592959392 0.11893645845 0.16189054523 0.21145771485 
0 0.005153086602 0.020612453965 0.046377930213 0.082449494116 0.12882734857 0.18551217741 0.25250598745 0.32981235889 
0 0.0074124757887 0.029647381699 0.06670455935 0.11858380181 0.18528479831 0.26680740928 0.36315235771 0.4743262504 
0 0.010095288095 0.040375644871 0.090841112914 0.16149134312 0.25232542542 0.36334180246 0.49453731577 0.64591086141 
0 0.013118564693 0.052466356727 0.11804381324 0.20985050066 0.32788541972 0.47214511598 0.64262319591 0.83927965412 

theta_y 1 81 double
0 0 0 0 0 0 0 0 0 
-1.4448071197e-06 0.00013554579396 0.00027261296999 0.0004098331972 0.00054728280445 0.00068500514614 0.00082296576659 0.00096091120436 0.0010985951919 
-2.8980831779e-06 0.0010927948282 0.0021886120208 0.0032847215829 0.0043813152335 0.0054785332974 0.0065763855697 0.0076744731281 0.0087722995501 
-4.300397714e-06 0.0036935219132 0.0073914593604 0.011089794637 0.014788898002 0.018489109882 0.022190636147 0.025893184943 0.029596074078 
-5.4666851333e-06 0.0087596403407 0.017524775439 0.026290348272 0.03505696946 0.043825287017 0.05259595971 0.061369237772 0.070144290133 
-6.049528568e-06 0.017113254384 0.034232424058 0.051351977172 0.068472748895 0.085595768354 0.10272235038 0.11985414228 0.13699083935 
-5.5719019662e-06 0.02957667001 0.059158600732 0.088740757655 0.11832406942 0.14790973147 0.17749984557 0.20709845668 0.23670627717 
-3.5444927147e-06 0.046972328988 0.093947860428 0.14092345415 0.18789970974 0.23487769094 0.28185864147 0.32885035877 0.37585953643 
-1.1102230246e-17 0.070122582067 0.14024516413 0.2103677462 0.28049032827 0.35061291034 0.4207354924 0.49085807447 0.56098065654 

