# vtk DataFile Version 5.1
vtk output
ASCII
DATASET UNSTRUCTURED_GRID
POINTS 81 double
0 0 0 0 0.125 0 0 0.25 0 
0 0.375 0 0 0.5 0 0 0.625 0 
0 0.75 0 0 0.875 0 0 1 0 
0.125 0 0 0.125 0.125 0 0.125 0.25 0 
0.125 0.375 0 0.125 0.5 0 0.125 0.625 0 
0.125 0.75 0 0.125 0.875 0 0.125 1 0 
0.25 0 0 0.25 0.125 0 0.25 0.25 0 
0.25 0.375 0 0.25 0.5 0 0.25 0.625 0 
0.25 0.75 0 0.25 0.875 0 0.25 1 0 
0.375 0 0 0.375 0.125 0 0.375 0.25 0 
0.375 0.375 0 0.375 0.5 0 0.375 0.625 0 
0.375 0.75 0 0.375 0.875 0 0.375 1 0 
0.5 0 0 0.5 0.125 0 0.5 0.25 0 
0.5 0.375 0 0.5 0.5 0 0.5 0.625 0 
0.5 0.75 0 0.5 0.875 0 0.5 1 0 
0.625 0 0 0.625 0.125 0 0.625 0.25 0 
0.625 0.375 0 0.625 0.5 0 0.625 0.625 0 
0.625 0.75 0 0.625 0.875 0 0.625 1 0 
0.75 0 0 0.75 0.125 0 0.75 0.25 0 
0.75 0.375 0 0.75 0.5 0 0.75 0.625 0 
0.75 0.75 0 0.75 0.875 0 0.75 1 0 
0.875 0 0 0.875 0.125 0 0.875 0.25 0 
0.875 0.375 0 0.875 0.5 0 0.875 0.625 0 
0.875 0.75 0 0.875 0.875 0 0.875 1 0 
1 0 0 1 0.125 0 1 0.25 0 
1 0.375 0 1 0.5 0 1 0.625 0 
1 0.75 0 1 0.875 0 1 1 0 

CELLS 65 256
OFFSETS vtktypeint64
0 4 8 12 16 20 24 28 32 
36 40 44 48 52 56 60 64 68 
72 76 80 84 88 92 96 100 104 
108 112 116 120 124 128 132 136 140 
144 148 152 156 160 164 168 172 176 
180 184 188 192 196 200 204 208 212 
216 220 224 228 232 236 240 244 248 
252 256 
CONNECTIVITY vtktypeint64
0 9 10 1 1 10 11 2 2 
11 12 3 3 12 13 4 4 13 
14 5 5 14 15 6 6 15 16 
7 7 16 17 8 9 18 19 10 
10 19 20 11 11 20 21 12 12 
21 22 13 13 22 23 14 14 23 
24 15 15 24 25 16 16 25 26 
17 18 27 28 19 19 28 29 20 
20 29 30 21 21 30 31 22 22 
31 32 23 23 32 33 24 24 33 
34 25 25 34 35 26 27 36 37 
28 28 37 38 29 29 38 39 30 
30 39 40 31 31 40 41 32 32 
41 42 33 33 42 43 34 34 43 
44 35 36 45 46 37 37 46 47 
38 38 47 48 39 39 48 49 40 
40 49 50 41 41 50 51 42 42 
51 52 43 43 52 53 44 45 54 
55 46 46 55 56 47 47 56 57 
48 48 57 58 49 49 58 59 50 
50 59 60 51 51 60 61 52 52 
61 62 53 54 63 64 55 55 64 
65 56 56 65 66 57 57 66 67 
58 58 67 68 59 59 68 69 60 
60 69 70 61 61 70 71 62 63 
72 73 64 64 73 74 65 65 74 
75 66 66 75 76 67 67 76 77 
68 68 77 78 69 69 78 79 70 
70 79 80 71 
CELL_TYPES 64
9
9
9
9
9
9
9
9
9
9
9
9
9
9
9
9
9
9
9
9
9
9
9
9
9
9
9
9
9
9
9
9
9
9
9
9
9
9
9
9
9
9
9
9
9
9
9
9
9
9
9
9
9
9
9
9
9
9
9
9
9
9
9
9

POINT_DATA 81
FIELD FieldData 3
theta 1 81 double
0 0 0 0 0 0 0 0 0 
0 7.7707405536e-06 3.1486536825e-05 7.1163024386e-05 0.00012682670982 0.00019851357968 0.00028626102712 0.00039009100352 0.00050997845679 
0 6.3348304405e-05 0.00025420055913 0.00057258437968 0.0010185534805 0.0015921867556 0.0022935750726 0.0031227915014 0.0040798276543 
0 0.00021454919154 0.00085938956538 0.0019345531153 0.0034401204095 0.0053762232745 0.0077430348302 0.010540733845 0.013769418333 
0 0.00050920824629 0.0020383400207 0.0045874204724 0.0081565518293 0.012745924701 0.018355822944 0.024986609747 0.032638621234 
0 0.00099518458605 0.0039823927837 0.0089616303284 0.015933007764 0.024896760484 0.035853291395 0.048803209643 0.063747307099 
0 0.0017203600402 0.0068829476077 0.015487743121 0.027534841434 0.043024478522 0.061957106997 0.08433359049 0.11015534667 
0 0.0027326251134 0.010931446793 0.024596433818 0.043727641353 0.068325215691 0.098389499937 0.13392121227 0.17492261068 
0 0.0040798276543 0.016319310617 0.036718448889 0.065277242469 0.10199569136 0.14687379556 0.19991155506 0.26110896988 

theta_x 1 81 double
0 -3.3442799249e-05 -0.00013055262275 -0.00029119720047 -0.00051516705008 -0.00080218917044 -0.0011519996075 -0.0015644786065 -0.0020399138272 
0 0.00021378464106 0.00085837616937 0.0019338882474 0.0034405359272 0.0053786306873 0.0077485239069 0.010550485656 0.013784443695 
0 0.00077788069385 0.0031147134987 0.0070105678659 0.012465662864 0.019480381225 0.028055258491 0.038190892717 0.049887736594 
0 0.0017358416274 0.006946239752 0.015631187467 0.02779088528 0.043425792199 0.062536686848 0.085124728963 0.11119121279 
0 0.0030745876823 0.01230031076 0.027677062299 0.049204972616 0.076884479848 0.11071655232 0.15070291737 0.19684638125 
0 0.0047969649035 0.019187998676 0.043172909555 0.076751674369 0.11992451942 0.17269220932 0.23505699238 0.30702294019 
0 0.0069004803014 0.02759913997 0.062095805118 0.11039024853 0.17248212593 0.24837128142 0.33805851216 0.44155119141 
0 0.0093982501637 0.0375868898 0.08456597141 0.15033510931 0.23489329164 0.33823877547 0.46036801874 0.60127962592 
0 0.012212982368 0.048843137535 0.109890951 0.19535592869 0.30523693497 0.43953009963 0.59822824166 0.7812869958 

theta_y 1 81 double
0 0 0 0 0 0 0 0 0 
-1.5932967831e-06 0.00012593573277 0.00025354807856 0.00038132887848 0.00050936418638 0.0006377037725 0.00076631133214 0.00089490579754 0.0010232116321 
-3.1987086592e-06 0.00101678542 0.0020369040806 0.0030573445052 0.0040783223728 0.0050999972857 0.0061223848603 0.0071450454187 0.0081674252411 
-4.7525355614e-06 0.0034375429399 0.0068799609885 0.01032281669 0.013766525882 0.017211473113 0.020657896904 0.024105483712 0.027553472922 
-6.0505462929e-06 0.0081533570725 0.016312788773 0.024472701524 0.032633779959 0.040796754048 0.048962371442 0.057130938759 0.065301541281 
-6.706306864e-06 0.015929590827 0.031865730424 0.047802290381 0.063740206656 0.079680634658 0.095625061606 0.11157536879 0.12753122813 
-6.1865666001e-06 0.027531834746 0.055069501535 0.082607414626 0.11014661315 0.1376884393 0.16523524904 0.19279164944 0.22035852378 
-3.9409397999e-06 0.043725835341 0.087455226267 0.13118468561 0.174914886 0.21864701832 0.26238247879 0.30612999948 0.34989706804 
-5.5511151231e-18 0.065277242469 0.13055448494 0.19583172741 0.26110896988 0.32638621234 0.39166345481 0.45694069728 0.52221793975 

