# vtk DataFile Version 5.1
vtk output
ASCII
DATASET UNSTRUCTURED_GRID
POINTS 25 double
0 0 0 0 0.25 0 0 0.5 0 
0 0.75 0 0 1 0 0.25 0 0 
0.25 0.25 0 0.25 0.5 0 0.25 0.75 0 
0.25 1 0 0.5 0 0 0.5 0.25 0 
0.5 0.5 0 0.5 0.75 0 0.5 1 0 
0.75 0 0 0.75 0.25 0 0.75 0.5 0 
0.75 0.75 0 0.75 1 0 1 0 0 
1 0.25 0 1 0.5 0 1 0.75 0 
1 1 0 
CELLS 17 64
OFFSETS vtktypeint64
0 4 8 12 16 20 24 28 32 
36 40 44 48 52 56 60 64 
CONNECTIVITY vtktypeint64
0 5 6 1 1 6 7 2 2 
7 8 3 3 8 9 4 5 10 
11 6 6 11 12 7 7 12 13 
8 8 13 14 9 10 15 16 11 
11 16 17 12 12 17 18 13 13 
18 19 14 15 20 21 16 16 21 
22 17 17 22 23 18 18 23 24 
19 
CELL_TYPES 16
9
9
9
9
9
9
9
9
9
9
9
9
9
9
9
9

POINT_DATA 25
FIELD FieldData 5
T 1 25 double
0 0 0 0 0 0 0.019775390625 0.03515625 0.019775390625 
0 0 0.03515625 0.0625 0.03515625 0 0 0.019775390625 0.03515625 
0.019775390625 0 0 0 0 0 0 
p 1 25 double
0 -3.0394678345e-17 1.1521998451e-16 6.5155363868e-16 7.7292389023e-17 -5.7005216487e-16 0.5625 3.9101279105e-16 -0.5625 
9.6204597865e-16 -2.4508062442e-16 -1.3183898417e-16 2.5158693965e-17 5.3198186597e-17 9.0300060416e-16 -5.4269409673e-16 -0.5625 -2.6972410624e-16 
0.5625 -6.884779542e-16 -4.0955907657e-15 -5.3621314314e-16 5.3117676759e-16 -4.3578244976e-16 -1.4228085405e-15 
u 3 25 double
0 0 0 0 0 0 0 0 0 
0 0 0 0 0 0 0 0 0 
0.10546875 -0.10546875 0 2.4069288229e-17 -0.1875 0 -0.10546875 -0.10546875 0 
0 0 0 0 0 0 0.1875 -5.5511151231e-17 0 
3.8163916471e-17 -4.5102810375e-17 0 -0.1875 -4.8572257327e-17 0 0 0 0 
0 0 0 0.10546875 0.10546875 0 2.3796299216e-17 0.1875 0 
-0.10546875 0.10546875 0 0 0 0 0 0 0 
0 0 0 0 0 0 0 0 0 
0 0 0 
u_x 1 25 double
0 0 0 0 0 0 0.10546875 2.4069288229e-17 -0.10546875 
0 0 0.1875 3.8163916471e-17 -0.1875 0 0 0.10546875 2.3796299216e-17 
-0.10546875 0 0 0 0 0 0 
u_y 1 25 double
0 0 0 0 0 0 -0.10546875 -0.1875 -0.10546875 
0 0 -5.5511151231e-17 -4.5102810375e-17 -4.8572257327e-17 0 0 0.10546875 0.1875 
0.10546875 0 0 0 0 0 0 
