<?xml version="1.0"?>
<VTKFile type="UnstructuredGrid" version="0.1" byte_order="LittleEndian" header_type="UInt32" compressor="vtkZLibDataCompressor">
  <UnstructuredGrid>
    <Piece NumberOfPoints="289" NumberOfCells="256">
      <PointData>
        <DataArray type="Float64" Name="P1" format="ascii" RangeMin="-8396449.9486" RangeMax="54374960.42">
          2487827.2301 -4278002.0414 -4103225.4299 -7166818.3209 637475.95018 19448376.606
          33512217.974 41198912.459 45149866.368 46411931.832 45625255.393 42965353.732
          38294241.179 31208963.059 21599686.763 8935692.091 629717.72103 2576253.0554
          -4430056.7595 -4249067.9938 -7421551.3767 660134.00925 20139637.939 34703355.976
          42663261.68 46754645.904 48061569.46 47246931.87 44492488.273 39655348.521
          32318235.562 22367412.963 9253296.9254 652100.02686 2658134.9782 -4570858.7543
          -4384117.5618 -7657433.0579 681115.27084 20779742.868 35806344.486 44019242.567
          48240664.641 49589126.591 48748597.098 45906608.089 40915727.886 33345416.983
          23078324.021 9547397.594 672825.94281 2731597.4512 -4697182.8838 -4505280.7531
          -7869060.3729 699939.15081 21354029.47 36795918.996 45235795.695 49573884.571
          50959613.758 50095854.68 47175322.051 42046509.65 34266979.212 23716136.16
          9811257.5724 691420.73127 2794793.2228 -4805852.6646 -4609510.8596 -8051111.8466
          716132.31056 21848057.008 37647196.144 46282330.208 50720781.19 52138569.356
          51254827.128 48266727.694 43019259.721 35059749.094 24264811.266 10038241.966
          707416.81683 2846004.119 -4893913.5702 -4693974.0608 -8198637.8423 729254.48983
          22248393.81 38337031.313 47130392.808 51650172.545 53093939.808 52194004.17
          49151151.758 43807530.863 35702172.711 24709431.899 10222179.498 720379.2961
          2883747.5958 -4958816.2568 -4756225.1658 -8307367.5155 738925.80398 22543450.213
          38845453.927 47755432.273 52335152.964 53798067.352 52886196.84 49802990.366
          44388502.801 36175652.044 25037126.39 10357745.218 729932.90816 2906878.0652
          -4998590.8015 -4794374.7323 -8374000.7084 744852.70989 22724270.679 39157032.369
          48138477.435 52754931.953 54229580.342 53310395.739 50202458.94 44744541.903
          36465816.069 25237948.572 10440824.44 735787.68228 2914670.9 -5011991.1545
          -4807227.6175 -8396449.9486 746849.53054 22785190.498 39262005.566 48267528.325
          52896358.755 54374960.42 53453311.643 50337043.006 44864494.242 36563574.583
          25305607.125 10468814.476 737760.20115 2906878.0652 -4998590.8015 -4794374.7323
          -8374000.7084 744852.70989 22724270.679 39157032.369 48138477.435 52754931.953
          54229580.342 53310395.739 50202458.94 44744541.903 36465816.069 25237948.572
          10440824.44 735787.68228 2883747.5958 -4958816.2568 -4756225.1658 -8307367.5155
          738925.80398 22543450.213 38845453.927 47755432.273 52335152.964 53798067.352
          52886196.84 49802990.366 44388502.801 36175652.044 25037126.39 10357745.218
          729932.90816 2846004.119 -4893913.5702 -4693974.0608 -8198637.8423 729254.48984
          22248393.81 38337031.313 47130392.808 51650172.545 53093939.808 52194004.17
          49151151.758 43807530.863 35702172.711 24709431.899 10222179.498 720379.2961
          2794793.2228 -4805852.6646 -4609510.8596 -8051111.8466 716132.31055 21848057.008
          37647196.144 46282330.208 50720781.19 52138569.356 51254827.128 48266727.694
          43019259.721 35059749.094 24264811.266 10038241.966 707416.81683 2731597.4512
          -4697182.8838 -4505280.7531 -7869060.3729 699939.15081 21354029.47 36795918.996
          45235795.695 49573884.571 50959613.758 50095854.68 47175322.051 42046509.65
          34266979.212 23716136.16 9811257.5724 691420.73127 2658134.9782 -4570858.7543
          -4384117.5618 -7657433.0579 681115.27084 20779742.868 35806344.486 44019242.567
          48240664.641 49589126.591 48748597.098 45906608.089 40915727.886 33345416.983
          23078324.021 9547397.594 672825.94281 2576253.0554 -4430056.7595 -4249067.9938
          -7421551.3767 660134.00925 20139637.939 34703355.976 42663261.68 46754645.904
          48061569.46 47246931.87 44492488.273 39655348.521 32318235.562 22367412.963
          9253296.9254 652100.02686 2487827.2301 -4278002.0414 -4103225.4299 -7166818.3209
          637475.95017 19448376.606 33512217.974 41198912.459 45149866.368 46411931.832
          45625255.393 42965353.732 38294241.179 31208963.059 21599686.763 8935692.091
          629717.72102
        </DataArray>
        <DataArray type="Float64" Name="P2" format="ascii" RangeMin="-248190911.13" RangeMax="144759.24161">
          -211844193.71 -148660193.68 -84657594.192 -34741650.305 -8990004.6195 -5847731.5212
          -5942161.3763 -5192382.7395 -4417891.4262 -3572458.3241 -2724343.4978 -1913127.5082
          -1162181.6142 -553737.34627 -89420.393086 123559.74112 -1651524.8457 -219373855.58
          -153944081.67 -87666612.507 -35976486.507 -9309539.9056 -6055579.7535 -6153365.9661
          -5376937.6511 -4574918.2871 -3699435.6222 -2821175.9154 -1981126.5553 -1203489.4945
          -573419.05136 -92598.697064 127951.47408 -1710225.6452 -226346289.09 -158836938.53
          -90452950.128 -37119939.356 -9605428.1647 -6248046.2956 -6348940.4801 -5547834.6809
          -4720324.4638 -3817016.0367 -2910842.3044 -2044093.371 -1241740.4082 -591644.22286
          -95541.792511 132018.19931 -1764582.3257 -232601787.14 -163226690.9 -92952784.586
          -38145817.487 -9870891.9248 -6420722.6027 -6524405.1846 -5701159.3461 -4850779.3547
          -3922506.3298 -2991288.8115 -2100585.6695 -1276058.1996 -607995.40463 -98182.266695
          135666.76616 -1813349.8199 -237983052 -167002956.19 -95103256.257 -39028324.668
          -10099255.965 -6569266.6418 -6675347.9303 -5833056.2196 -4963002.6047 -4013253.8935
          -3060492.5678 -2149182.9223 -1305579.9295 -622061.43712 -100453.72287 138805.42995
          -1855301.8434 -242343777.25 -170063064.89 -96845897.875 -39743467.194 -10284311.498
          -6689639.7804 -6797664.8685 -5939939.2741 -5053943.0754 -4086791.4729 -3116572.0537
          -2188563.862 -1329502.9582 -633459.89175 -102294.40476 141348.8562 -1889297.8004
          -245557720.86 -172318427.53 -98130260.355 -40270541.847 -10420701.207 -6778357.2432
          -6887814.9512 -6018714.2693 -5120968.0605 -4140990.1715 -3157903.7807 -2217588.4193
          -1347134.7191 -641860.78569 -103651.02488 143223.41332 -1914353.5153 -247527333.37
          -173700589.45 -98917360.787 -40593550.884 -10504285.398 -6832726.2818 -6943061.9475
          -6066990.2301 -5162043.2208 -4174204.953 -3183233.2502 -2235375.6421 -1357940.0539
          -647009.13545 -104482.40724 144372.20483 -1929708.4983 -248190911.13 -174166250.54
          -99182541.037 -40702375.138 -10532445.561 -6851043.6333 -6961675.0897 -6083254.7763
          -5175881.7614 -4185395.2709 -3191766.9452 -2241368.2956 -1361580.4552 -648743.65448
          -104762.5064 144759.24161 -1934881.7113 -247527333.37 -173700589.45 -98917360.787
          -40593550.884 -10504285.398 -6832726.2818 -6943061.9475 -6066990.2301 -5162043.2208
          -4174204.953 -3183233.2502 -2235375.6421 -1357940.0539 -647009.13545 -104482.40724
          144372.20483 -1929708.4983 -245557720.86 -172318427.53 -98130260.355 -40270541.847
          -10420701.207 -6778357.2432 -6887814.9512 -6018714.2693 -5120968.0605 -4140990.1715
          -3157903.7807 -2217588.4193 -1347134.7191 -641860.78569 -103651.02488 143223.41331
          -1914353.5153 -242343777.25 -170063064.89 -96845897.875 -39743467.194 -10284311.498
          -6689639.7804 -6797664.8685 -5939939.2741 -5053943.0754 -4086791.4729 -3116572.0537
          -2188563.862 -1329502.9582 -633459.89175 -102294.40476 141348.8562 -1889297.8004
          -237983052 -167002956.19 -95103256.257 -39028324.668 -10099255.965 -6569266.6418
          -6675347.9303 -5833056.2196 -4963002.6047 -4013253.8935 -3060492.5678 -2149182.9223
          -1305579.9295 -622061.43712 -100453.72287 138805.42995 -1855301.8434 -232601787.14
          -163226690.9 -92952784.586 -38145817.487 -9870891.9248 -6420722.6027 -6524405.1846
          -5701159.3461 -4850779.3547 -3922506.3298 -2991288.8115 -2100585.6695 -1276058.1996
          -607995.40464 -98182.266695 135666.76616 -1813349.8199 -226346289.09 -158836938.53
          -90452950.128 -37119939.356 -9605428.1647 -6248046.2956 -6348940.4801 -5547834.6809
          -4720324.4638 -3817016.0367 -2910842.3044 -2044093.371 -1241740.4082 -591644.22285
          -95541.792509 132018.19931 -1764582.3257 -219373855.58 -153944081.67 -87666612.507
          -35976486.507 -9309539.9056 -6055579.7535 -6153365.9661 -5376937.6511 -4574918.2871
          -3699435.6222 -2821175.9154 -1981126.5553 -1203489.4945 -573419.05136 -92598.697063
          127951.47407 -1710225.6452 -211844193.71 -148660193.68 -84657594.192 -34741650.305
          -8990004.6195 -5847731.5212 -5942161.3763 -5192382.7395 -4417891.4262 -3572458.3241
          -2724343.4978 -1913127.5082 -1162181.6142 -553737.34627 -89420.393088 123559.74112
          -1651524.8457
        </DataArray>
        <DataArray type="Float64" Name="displacement" NumberOfComponents="3" format="ascii" RangeMin="6.9377296662e-06" RangeMax="1.0837440421e-05">
          6.9377296662e-06 0 0 7.8189092318e-06 0 0
          8.4347151914e-06 0 0 8.8206053787e-06 0 0
          9.0394037752e-06 0 0 9.1455073685e-06 0 0
          9.1802024192e-06 0 0 9.1721114901e-06 0 0
          9.1405481453e-06 0 0 9.0986103406e-06 0 0
          9.0557852948e-06 0 0 9.0199627058e-06 0 0
          8.9989795772e-06 0 0 9.0017737589e-06 0 0
          9.038621739e-06 0 0 9.1201570273e-06 0 0
          9.2503044959e-06 0 0 7.1546705615e-06 6.5152664039e-07 0
          8.0634043693e-06 7.3427877828e-07 0 8.6984664116e-06 7.9210951071e-07 0
          9.0964232787e-06 8.2834870557e-07 0 9.3220634408e-06 8.4889620325e-07 0
          9.4314848642e-06 8.5886045971e-07 0 9.4672648196e-06 8.6211869417e-07 0
          9.4589208894e-06 8.6135886983e-07 0 9.4263705675e-06 8.5839473588e-07 0
          9.3831213792e-06 8.5445632975e-07 0 9.338957206e-06 8.5043460225e-07 0
          9.3020144546e-06 8.4707047996e-07 0 9.2803751893e-06 8.450999409e-07 0
          9.2832567443e-06 8.4536234429e-07 0 9.3212569505e-06 8.4882276172e-07 0
          9.4053418249e-06 8.5647979292e-07 0 9.539558969e-06 8.6870202513e-07 0
          7.2876781985e-06 1.3555519081e-06 0 8.2133056614e-06 1.5277241746e-06 0
          8.8601737122e-06 1.6480455166e-06 0 9.265528726e-06 1.7234439834e-06 0
          9.4953636116e-06 1.7661946523e-06 0 9.6068192147e-06 1.7869260637e-06 0
          9.643264331e-06 1.7937050742e-06 0 9.6347652844e-06 1.7921242005e-06 0
          9.6016098415e-06 1.785957089e-06 0 9.5575566368e-06 1.7777629284e-06 0
          9.5125714374e-06 1.7693954112e-06 0 9.4749419083e-06 1.7623960928e-06 0
          9.4529003621e-06 1.7582962328e-06 0 9.4558354861e-06 1.7588421835e-06 0
          9.4945421284e-06 1.7660418515e-06 0 9.5801901678e-06 1.7819729011e-06 0
          9.7169024519e-06 1.8074022069e-06 0 7.3217944408e-06 2.1019684109e-06 0
          8.2517550987e-06 2.3689450301e-06 0 8.9016513715e-06 2.5555197075e-06 0
          9.3089039978e-06 2.6724353301e-06 0 9.5398148232e-06 2.7387260823e-06 0
          9.65179219e-06 2.7708729678e-06 0 9.688407919e-06 2.7813847496e-06 0
          9.6798690854e-06 2.778933389e-06 0 9.6465584299e-06 2.7693704402e-06 0
          9.6022989963e-06 2.7566642748e-06 0 9.557103205e-06 2.7436892962e-06 0
          9.5192975185e-06 2.7328358969e-06 0 9.4971527879e-06 2.726478504e-06 0
          9.5001016523e-06 2.7273250751e-06 0 9.5389894944e-06 2.7384891438e-06 0
          9.625038483e-06 2.7631924125e-06 0 9.7623907665e-06 2.802624025e-06 0
          7.2446125318e-06 2.8737683965e-06 0 8.1647701094e-06 3.2387733923e-06 0
          8.8078155705e-06 3.4938544909e-06 0 9.210775187e-06 3.6536991487e-06 0
          9.4392518908e-06 3.7443305148e-06 0 9.5500488602e-06 3.7882810819e-06 0
          9.5862786084e-06 3.8026525759e-06 0 9.577829786e-06 3.7993011256e-06 0
          9.5448702712e-06 3.7862268567e-06 0 9.5010773936e-06 3.7688552462e-06 0
          9.4563580289e-06 3.7511161198e-06 0 9.418950867e-06 3.7362775734e-06 0
          9.3970395727e-06 3.7275858752e-06 0 9.399957352e-06 3.72874329e-06 0
          9.438435262e-06 3.7440065773e-06 0 9.5235771745e-06 3.7777803831e-06 0
          9.6594815737e-06 3.8316904805e-06 0 7.0480194827e-06 3.648954925e-06 0
          7.9432072523e-06 4.1124184312e-06 0 8.5688027439e-06 4.4363065469e-06 0
          8.9608274679e-06 4.6392686061e-06 0 9.1831041255e-06 4.7543473891e-06 0
          9.2908944588e-06 4.8101534306e-06 0 9.3261410604e-06 4.8284015726e-06 0
          9.317921509e-06 4.8241460831e-06 0 9.2858563983e-06 4.8075450871e-06 0
          9.2432519039e-06 4.7854875601e-06 0 9.1997460639e-06 4.7629633816e-06 0
          9.1633539995e-06 4.7441222017e-06 0 9.1420372999e-06 4.7330859559e-06 0
          9.1448759009e-06 4.7345555783e-06 0 9.1823096572e-06 4.7539360708e-06 0
          9.2651411206e-06 4.796820214e-06 0 9.3973575572e-06 4.8652723257e-06 0
          6.729397631e-06 4.4030084921e-06 0 7.5841163887e-06 4.9622463547e-06 0
          8.1814304043e-06 5.3530656861e-06 0 8.5557327534e-06 5.5979696898e-06 0
          8.7679608859e-06 5.7368294096e-06 0 8.8708783105e-06 5.8041677242e-06 0
          8.9045315088e-06 5.8261868299e-06 0 8.896683541e-06 5.821051947e-06 0
          8.866068007e-06 5.8010203686e-06 0 8.8253895463e-06 5.7744046717e-06 0
          8.7838504874e-06 5.7472258899e-06 0 8.7491036095e-06 5.7244911956e-06 0
          8.7287505801e-06 5.7111743185e-06 0 8.7314608557e-06 5.7129476372e-06 0
          8.7672023334e-06 5.7363330928e-06 0 8.8462892109e-06 5.7880792092e-06 0
          8.9725285008e-06 5.8706768942e-06 0 6.2924523088e-06 5.1105724317e-06 0
          7.0916734747e-06 5.7596798792e-06 0 7.6502034e-06 6.2133039193e-06 0
          8.0002019898e-06 6.4975640228e-06 0 8.1986499752e-06 6.6587385146e-06 0
          8.2948848867e-06 6.7368981035e-06 0 8.3263529551e-06 6.7624556819e-06 0
          8.3190145624e-06 6.7564956228e-06 0 8.2903869202e-06 6.7332449676e-06 0
          8.2523497454e-06 6.7023521253e-06 0 8.2135078517e-06 6.6708057104e-06 0
          8.1810171172e-06 6.6444175482e-06 0 8.1619856268e-06 6.6289606475e-06 0
          8.164519922e-06 6.6310189387e-06 0 8.1979406761e-06 6.6581624396e-06 0
          8.2718923776e-06 6.7182241625e-06 0 8.3899348466e-06 6.8140953044e-06 0
          5.7474217813e-06 5.7474217813e-06 0 6.4774171649e-06 6.4774171649e-06 0
          6.9875691535e-06 6.9875691535e-06 0 7.3072520719e-06 7.3072520719e-06 0
          7.4885111769e-06 7.4885111769e-06 0 7.5764105521e-06 7.5764105521e-06 0
          7.605152965e-06 7.605152965e-06 0 7.5984501985e-06 7.5984501985e-06 0
          7.572302184e-06 7.572302184e-06 0 7.5375596582e-06 7.5375596582e-06 0
          7.5020821154e-06 7.5020821154e-06 0 7.4724056163e-06 7.4724056163e-06 0
          7.455022568e-06 7.455022568e-06 0 7.4573373512e-06 7.4573373512e-06 0
          7.4878633148e-06 7.4878633148e-06 0 7.5554095749e-06 7.5554095749e-06 0
          7.6632276122e-06 7.6632276122e-06 0 5.1105724317e-06 6.2924523088e-06 0
          5.7596798792e-06 7.0916734747e-06 0 6.2133039193e-06 7.6502034e-06 0
          6.4975640228e-06 8.0002019898e-06 0 6.6587385146e-06 8.1986499752e-06 0
          6.7368981035e-06 8.2948848867e-06 0 6.7624556819e-06 8.3263529552e-06 0
          6.7564956228e-06 8.3190145624e-06 0 6.7332449676e-06 8.2903869202e-06 0
          6.7023521253e-06 8.2523497454e-06 0 6.6708057104e-06 8.2135078517e-06 0
          6.6444175482e-06 8.1810171172e-06 0 6.6289606475e-06 8.1619856268e-06 0
          6.6310189387e-06 8.164519922e-06 0 6.6581624396e-06 8.1979406761e-06 0
          6.7182241625e-06 8.2718923776e-06 0 6.8140953044e-06 8.3899348466e-06 0
          4.403008492e-06 6.729397631e-06 0 4.9622463547e-06 7.5841163887e-06 0
          5.3530656861e-06 8.1814304043e-06 0 5.5979696898e-06 8.5557327534e-06 0
          5.7368294096e-06 8.7679608859e-06 0 5.8041677242e-06 8.8708783105e-06 0
          5.8261868299e-06 8.9045315088e-06 0 5.821051947e-06 8.896683541e-06 0
          5.8010203686e-06 8.866068007e-06 0 5.7744046717e-06 8.8253895463e-06 0
          5.7472258899e-06 8.7838504874e-06 0 5.7244911956e-06 8.7491036095e-06 0
          5.7111743185e-06 8.7287505801e-06 0 5.7129476372e-06 8.7314608557e-06 0
          5.7363330928e-06 8.7672023334e-06 0 5.7880792092e-06 8.8462892109e-06 0
          5.8706768942e-06 8.9725285008e-06 0 3.648954925e-06 7.0480194827e-06 0
          4.1124184312e-06 7.9432072523e-06 0 4.4363065469e-06 8.5688027439e-06 0
          4.6392686061e-06 8.9608274679e-06 0 4.7543473891e-06 9.1831041255e-06 0
          4.8101534306e-06 9.2908944588e-06 0 4.8284015726e-06 9.3261410604e-06 0
          4.8241460831e-06 9.317921509e-06 0 4.8075450871e-06 9.2858563983e-06 0
          4.7854875601e-06 9.2432519039e-06 0 4.7629633816e-06 9.1997460639e-06 0
          4.7441222017e-06 9.1633539995e-06 0 4.7330859559e-06 9.1420372999e-06 0
          4.7345555783e-06 9.144875901e-06 0 4.7539360708e-06 9.1823096572e-06 0
          4.796820214e-06 9.2651411206e-06 0 4.8652723257e-06 9.3973575572e-06 0
          2.8737683965e-06 7.2446125318e-06 0 3.2387733923e-06 8.1647701094e-06 0
          3.4938544909e-06 8.8078155705e-06 0 3.6536991487e-06 9.2107751871e-06 0
          3.7443305148e-06 9.4392518908e-06 0 3.7882810819e-06 9.5500488602e-06 0
          3.8026525759e-06 9.5862786084e-06 0 3.7993011256e-06 9.577829786e-06 0
          3.7862268567e-06 9.5448702712e-06 0 3.7688552462e-06 9.5010773936e-06 0
          3.7511161198e-06 9.4563580289e-06 0 3.7362775734e-06 9.418950867e-06 0
          3.7275858752e-06 9.3970395728e-06 0 3.72874329e-06 9.399957352e-06 0
          3.7440065773e-06 9.4384352621e-06 0 3.7777803831e-06 9.5235771745e-06 0
          3.8316904805e-06 9.6594815737e-06 0 2.1019684109e-06 7.3217944408e-06 0
          2.3689450301e-06 8.2517550987e-06 0 2.5555197075e-06 8.9016513715e-06 0
          2.6724353301e-06 9.3089039979e-06 0 2.7387260823e-06 9.5398148232e-06 0
          2.7708729678e-06 9.65179219e-06 0 2.7813847496e-06 9.688407919e-06 0
          2.778933389e-06 9.6798690854e-06 0 2.7693704402e-06 9.6465584299e-06 0
          2.7566642748e-06 9.6022989963e-06 0 2.7436892962e-06 9.557103205e-06 0
          2.7328358969e-06 9.5192975185e-06 0 2.726478504e-06 9.4971527879e-06 0
          2.7273250751e-06 9.5001016523e-06 0 2.7384891438e-06 9.5389894944e-06 0
          2.7631924125e-06 9.625038483e-06 0 2.802624025e-06 9.7623907665e-06 0
          1.3555519081e-06 7.2876781985e-06 0 1.5277241746e-06 8.2133056614e-06 0
          1.6480455166e-06 8.8601737123e-06 0 1.7234439834e-06 9.265528726e-06 0
          1.7661946523e-06 9.4953636116e-06 0 1.7869260637e-06 9.6068192147e-06 0
          1.7937050742e-06 9.643264331e-06 0 1.7921242005e-06 9.6347652844e-06 0
          1.785957089e-06 9.6016098415e-06 0 1.7777629284e-06 9.5575566368e-06 0
          1.7693954112e-06 9.5125714374e-06 0 1.7623960928e-06 9.4749419083e-06 0
          1.7582962328e-06 9.4529003621e-06 0 1.7588421835e-06 9.4558354861e-06 0
          1.7660418515e-06 9.4945421285e-06 0 1.7819729011e-06 9.5801901678e-06 0
          1.8074022069e-06 9.7169024519e-06 0 6.5152664039e-07 7.1546705615e-06 0
          7.3427877828e-07 8.0634043693e-06 0 7.9210951071e-07 8.6984664116e-06 0
          8.2834870557e-07 9.0964232787e-06 0 8.4889620325e-07 9.3220634408e-06 0
          8.5886045971e-07 9.4314848642e-06 0 8.6211869417e-07 9.4672648196e-06 0
          8.6135886983e-07 9.4589208894e-06 0 8.5839473588e-07 9.4263705675e-06 0
          8.5445632975e-07 9.3831213792e-06 0 8.5043460225e-07 9.338957206e-06 0
          8.4707047996e-07 9.3020144546e-06 0 8.450999409e-07 9.2803751893e-06 0
          8.4536234429e-07 9.2832567443e-06 0 8.4882276172e-07 9.3212569506e-06 0
          8.5647979292e-07 9.4053418249e-06 0 8.6870202513e-07 9.539558969e-06 0
          0 6.9377296662e-06 0 0 7.8189092318e-06 0
          0 8.4347151914e-06 0 0 8.8206053787e-06 0
          0 9.0394037752e-06 0 0 9.1455073685e-06 0
          0 9.1802024192e-06 0 0 9.1721114902e-06 0
          0 9.1405481453e-06 0 0 9.0986103406e-06 0
          0 9.0557852948e-06 0 0 9.0199627058e-06 0
          0 8.9989795773e-06 0 0 9.0017737589e-06 0
          0 9.038621739e-06 0 0 9.1201570273e-06 0
          0 9.2503044959e-06 0
        </DataArray>
        <DataArray type="Float64" Name="displacement_x" format="ascii" RangeMin="0" RangeMax="9.7623907665e-06">
          6.9377296662e-06 7.8189092318e-06 8.4347151914e-06 8.8206053787e-06 9.0394037752e-06 9.1455073685e-06
          9.1802024192e-06 9.1721114901e-06 9.1405481453e-06 9.0986103406e-06 9.0557852948e-06 9.0199627058e-06
          8.9989795772e-06 9.0017737589e-06 9.038621739e-06 9.1201570273e-06 9.2503044959e-06 7.1546705615e-06
          8.0634043693e-06 8.6984664116e-06 9.0964232787e-06 9.3220634408e-06 9.4314848642e-06 9.4672648196e-06
          9.4589208894e-06 9.4263705675e-06 9.3831213792e-06 9.338957206e-06 9.3020144546e-06 9.2803751893e-06
          9.2832567443e-06 9.3212569505e-06 9.4053418249e-06 9.539558969e-06 7.2876781985e-06 8.2133056614e-06
          8.8601737122e-06 9.265528726e-06 9.4953636116e-06 9.6068192147e-06 9.643264331e-06 9.6347652844e-06
          9.6016098415e-06 9.5575566368e-06 9.5125714374e-06 9.4749419083e-06 9.4529003621e-06 9.4558354861e-06
          9.4945421284e-06 9.5801901678e-06 9.7169024519e-06 7.3217944408e-06 8.2517550987e-06 8.9016513715e-06
          9.3089039978e-06 9.5398148232e-06 9.65179219e-06 9.688407919e-06 9.6798690854e-06 9.6465584299e-06
          9.6022989963e-06 9.557103205e-06 9.5192975185e-06 9.4971527879e-06 9.5001016523e-06 9.5389894944e-06
          9.625038483e-06 9.7623907665e-06 7.2446125318e-06 8.1647701094e-06 8.8078155705e-06 9.210775187e-06
          9.4392518908e-06 9.5500488602e-06 9.5862786084e-06 9.577829786e-06 9.5448702712e-06 9.5010773936e-06
          9.4563580289e-06 9.418950867e-06 9.3970395727e-06 9.399957352e-06 9.438435262e-06 9.5235771745e-06
          9.6594815737e-06 7.0480194827e-06 7.9432072523e-06 8.5688027439e-06 8.9608274679e-06 9.1831041255e-06
          9.2908944588e-06 9.3261410604e-06 9.317921509e-06 9.2858563983e-06 9.2432519039e-06 9.1997460639e-06
          9.1633539995e-06 9.1420372999e-06 9.1448759009e-06 9.1823096572e-06 9.2651411206e-06 9.3973575572e-06
          6.729397631e-06 7.5841163887e-06 8.1814304043e-06 8.5557327534e-06 8.7679608859e-06 8.8708783105e-06
          8.9045315088e-06 8.896683541e-06 8.866068007e-06 8.8253895463e-06 8.7838504874e-06 8.7491036095e-06
          8.7287505801e-06 8.7314608557e-06 8.7672023334e-06 8.8462892109e-06 8.9725285008e-06 6.2924523088e-06
          7.0916734747e-06 7.6502034e-06 8.0002019898e-06 8.1986499752e-06 8.2948848867e-06 8.3263529551e-06
          8.3190145624e-06 8.2903869202e-06 8.2523497454e-06 8.2135078517e-06 8.1810171172e-06 8.1619856268e-06
          8.164519922e-06 8.1979406761e-06 8.2718923776e-06 8.3899348466e-06 5.7474217813e-06 6.4774171649e-06
          6.9875691535e-06 7.3072520719e-06 7.4885111769e-06 7.5764105521e-06 7.605152965e-06 7.5984501985e-06
          7.572302184e-06 7.5375596582e-06 7.5020821154e-06 7.4724056163e-06 7.455022568e-06 7.4573373512e-06
          7.4878633148e-06 7.5554095749e-06 7.6632276122e-06 5.1105724317e-06 5.7596798792e-06 6.2133039193e-06
          6.4975640228e-06 6.6587385146e-06 6.7368981035e-06 6.7624556819e-06 6.7564956228e-06 6.7332449676e-06
          6.7023521253e-06 6.6708057104e-06 6.6444175482e-06 6.6289606475e-06 6.6310189387e-06 6.6581624396e-06
          6.7182241625e-06 6.8140953044e-06 4.403008492e-06 4.9622463547e-06 5.3530656861e-06 5.5979696898e-06
          5.7368294096e-06 5.8041677242e-06 5.8261868299e-06 5.821051947e-06 5.8010203686e-06 5.7744046717e-06
          5.7472258899e-06 5.7244911956e-06 5.7111743185e-06 5.7129476372e-06 5.7363330928e-06 5.7880792092e-06
          5.8706768942e-06 3.648954925e-06 4.1124184312e-06 4.4363065469e-06 4.6392686061e-06 4.7543473891e-06
          4.8101534306e-06 4.8284015726e-06 4.8241460831e-06 4.8075450871e-06 4.7854875601e-06 4.7629633816e-06
          4.7441222017e-06 4.7330859559e-06 4.7345555783e-06 4.7539360708e-06 4.796820214e-06 4.8652723257e-06
          2.8737683965e-06 3.2387733923e-06 3.4938544909e-06 3.6536991487e-06 3.7443305148e-06 3.7882810819e-06
          3.8026525759e-06 3.7993011256e-06 3.7862268567e-06 3.7688552462e-06 3.7511161198e-06 3.7362775734e-06
          3.7275858752e-06 3.72874329e-06 3.7440065773e-06 3.7777803831e-06 3.8316904805e-06 2.1019684109e-06
          2.3689450301e-06 2.5555197075e-06 2.6724353301e-06 2.7387260823e-06 2.7708729678e-06 2.7813847496e-06
          2.778933389e-06 2.7693704402e-06 2.7566642748e-06 2.7436892962e-06 2.7328358969e-06 2.726478504e-06
          2.7273250751e-06 2.7384891438e-06 2.7631924125e-06 2.802624025e-06 1.3555519081e-06 1.5277241746e-06
          1.6480455166e-06 1.7234439834e-06 1.7661946523e-06 1.7869260637e-06 1.7937050742e-06 1.7921242005e-06
          1.785957089e-06 1.7777629284e-06 1.7693954112e-06 1.7623960928e-06 1.7582962328e-06 1.7588421835e-06
          1.7660418515e-06 1.7819729011e-06 1.8074022069e-06 6.5152664039e-07 7.3427877828e-07 7.9210951071e-07
          8.2834870557e-07 8.4889620325e-07 8.5886045971e-07 8.6211869417e-07 8.6135886983e-07 8.5839473588e-07
          8.5445632975e-07 8.5043460225e-07 8.4707047996e-07 8.450999409e-07 8.4536234429e-07 8.4882276172e-07
          8.5647979292e-07 8.6870202513e-07 0 0 0 0
          0 0 0 0 0 0
          0 0 0 0 0 0
          0
        </DataArray>
        <DataArray type="Float64" Name="displacement_y" format="ascii" RangeMin="0" RangeMax="9.7623907665e-06">
          0 0 0 0 0 0
          0 0 0 0 0 0
          0 0 0 0 0 6.5152664039e-07
          7.3427877828e-07 7.9210951071e-07 8.2834870557e-07 8.4889620325e-07 8.5886045971e-07 8.6211869417e-07
          8.6135886983e-07 8.5839473588e-07 8.5445632975e-07 8.5043460225e-07 8.4707047996e-07 8.450999409e-07
          8.4536234429e-07 8.4882276172e-07 8.5647979292e-07 8.6870202513e-07 1.3555519081e-06 1.5277241746e-06
          1.6480455166e-06 1.7234439834e-06 1.7661946523e-06 1.7869260637e-06 1.7937050742e-06 1.7921242005e-06
          1.785957089e-06 1.7777629284e-06 1.7693954112e-06 1.7623960928e-06 1.7582962328e-06 1.7588421835e-06
          1.7660418515e-06 1.7819729011e-06 1.8074022069e-06 2.1019684109e-06 2.3689450301e-06 2.5555197075e-06
          2.6724353301e-06 2.7387260823e-06 2.7708729678e-06 2.7813847496e-06 2.778933389e-06 2.7693704402e-06
          2.7566642748e-06 2.7436892962e-06 2.7328358969e-06 2.726478504e-06 2.7273250751e-06 2.7384891438e-06
          2.7631924125e-06 2.802624025e-06 2.8737683965e-06 3.2387733923e-06 3.4938544909e-06 3.6536991487e-06
          3.7443305148e-06 3.7882810819e-06 3.8026525759e-06 3.7993011256e-06 3.7862268567e-06 3.7688552462e-06
          3.7511161198e-06 3.7362775734e-06 3.7275858752e-06 3.72874329e-06 3.7440065773e-06 3.7777803831e-06
          3.8316904805e-06 3.648954925e-06 4.1124184312e-06 4.4363065469e-06 4.6392686061e-06 4.7543473891e-06
          4.8101534306e-06 4.8284015726e-06 4.8241460831e-06 4.8075450871e-06 4.7854875601e-06 4.7629633816e-06
          4.7441222017e-06 4.7330859559e-06 4.7345555783e-06 4.7539360708e-06 4.796820214e-06 4.8652723257e-06
          4.4030084921e-06 4.9622463547e-06 5.3530656861e-06 5.5979696898e-06 5.7368294096e-06 5.8041677242e-06
          5.8261868299e-06 5.821051947e-06 5.8010203686e-06 5.7744046717e-06 5.7472258899e-06 5.7244911956e-06
          5.7111743185e-06 5.7129476372e-06 5.7363330928e-06 5.7880792092e-06 5.8706768942e-06 5.1105724317e-06
          5.7596798792e-06 6.2133039193e-06 6.4975640228e-06 6.6587385146e-06 6.7368981035e-06 6.7624556819e-06
          6.7564956228e-06 6.7332449676e-06 6.7023521253e-06 6.6708057104e-06 6.6444175482e-06 6.6289606475e-06
          6.6310189387e-06 6.6581624396e-06 6.7182241625e-06 6.8140953044e-06 5.7474217813e-06 6.4774171649e-06
          6.9875691535e-06 7.3072520719e-06 7.4885111769e-06 7.5764105521e-06 7.605152965e-06 7.5984501985e-06
          7.572302184e-06 7.5375596582e-06 7.5020821154e-06 7.4724056163e-06 7.455022568e-06 7.4573373512e-06
          7.4878633148e-06 7.5554095749e-06 7.6632276122e-06 6.2924523088e-06 7.0916734747e-06 7.6502034e-06
          8.0002019898e-06 8.1986499752e-06 8.2948848867e-06 8.3263529552e-06 8.3190145624e-06 8.2903869202e-06
          8.2523497454e-06 8.2135078517e-06 8.1810171172e-06 8.1619856268e-06 8.164519922e-06 8.1979406761e-06
          8.2718923776e-06 8.3899348466e-06 6.729397631e-06 7.5841163887e-06 8.1814304043e-06 8.5557327534e-06
          8.7679608859e-06 8.8708783105e-06 8.9045315088e-06 8.896683541e-06 8.866068007e-06 8.8253895463e-06
          8.7838504874e-06 8.7491036095e-06 8.7287505801e-06 8.7314608557e-06 8.7672023334e-06 8.8462892109e-06
          8.9725285008e-06 7.0480194827e-06 7.9432072523e-06 8.5688027439e-06 8.9608274679e-06 9.1831041255e-06
          9.2908944588e-06 9.3261410604e-06 9.317921509e-06 9.2858563983e-06 9.2432519039e-06 9.1997460639e-06
          9.1633539995e-06 9.1420372999e-06 9.144875901e-06 9.1823096572e-06 9.2651411206e-06 9.3973575572e-06
          7.2446125318e-06 8.1647701094e-06 8.8078155705e-06 9.2107751871e-06 9.4392518908e-06 9.5500488602e-06
          9.5862786084e-06 9.577829786e-06 9.5448702712e-06 9.5010773936e-06 9.4563580289e-06 9.418950867e-06
          9.3970395728e-06 9.399957352e-06 9.4384352621e-06 9.5235771745e-06 9.6594815737e-06 7.3217944408e-06