# vtk DataFile Version 5.1
vtk output
ASCII
DATASET UNSTRUCTURED_GRID
POINTS 289 double
0.03 0 0 0.030625 0 0 0.03125 0 0 
0.031875 0 0 0.0325 0 0 0.033125 0 0 
0.03375 0 0 0.034375 0 0 0.035 0 0 
0.035625 0 0 0.03625 0 0 0.036875 0 0 
0.0375 0 0 0.038125 0 0 0.03875 0 0 
0.039375 0 0 0.04 0 0 0.029878647258 0.0026956331369 0 
0.030501119076 0.0027517921606 0 0.031123590894 0.0028079511843 0 0.031746062712 0.002864110208 0 
0.03236853453 0.0029202692317 0 0.032991006348 0.0029764282554 0 0.033613478166 0.003032587279 0 
0.034235949984 0.0030887463027 0 0.034858421801 0.0031449053264 0 0.035480893619 0.0032010643501 0 
0.036103365437 0.0032572233738 0 0.036725837255 0.0033133823975 0 0.037348309073 0.0033695414212 0 
0.037970780891 0.0034257004448 0 0.038593252709 0.0034818594685 0 0.039215724527 0.0035380184922 0 
0.039838196345 0.0035941775159 0 0.029499161052 0.0054588915724 0 0.030113726908 0.0055726184801 0 
0.030728292763 0.0056863453879 0 0.031342858618 0.0058000722956 0 0.031957424474 0.0059137992034 0 
0.032571990329 0.0060275261112 0 0.033186556184 0.0061412530189 0 0.033801122039 0.0062549799267 0 
0.034415687895 0.0063687068344 0 0.03503025375 0.0064824337422 0 0.035644819605 0.0065961606499 0 
0.03625938546 0.0067098875577 0 0.036873951316 0.0068236144655 0 0.037488517171 0.0069373413732 0 
0.038103083026 0.007051068281 0 0.038717648881 0.0071647951887 0 0.039332214737 0.0072785220965 0 
0.028841968746 0.0082547464454 0 0.029442843094 0.0084267203296 0 0.030043717443 0.0085986942139 0 
0.030644591792 0.0087706680982 0 0.031245466141 0.0089426419825 0 0.03184634049 0.0091146158668 0 
0.032447214839 0.009286589751 0 0.033048089188 0.0094585636353 0 0.033648963537 0.0096305375196 0 
0.034249837885 0.0098025114039 0 0.034850712234 0.0099744852881 0 0.035451586583 0.010146459172 0 
0.036052460932 0.010318433057 0 0.036653335281 0.010490406941 0 0.03725420963 0.010662380825 0 
0.037855083979 0.01083435471 0 0.038455958327 0.011006328594 0 0.027893649032 0.011042841287 0 
0.02847476672 0.01127290048 0 0.029055884408 0.011502959674 0 0.029637002096 0.011733018867 0 
0.030218119785 0.011963078061 0 0.030799237473 0.012193137254 0 0.031380355161 0.012423196448 0 
0.031961472849 0.012653255641 0 0.032542590537 0.012883314835 0 0.033123708225 0.013113374028 0 
0.033704825914 0.013343433222 0 0.034285943602 0.013573492415 0 0.03486706129 0.013803551609 0 
0.035448178978 0.014033610802 0 0.036029296666 0.014263669996 0 0.036610414354 0.014493729189 0 
0.037191532042 0.014723788382 0 0.026648520205 0.013778837792 0 0.027203697709 0.014065896912 0 
0.027758875213 0.014352956033 0 0.028314052718 0.014640015154 0 0.028869230222 0.014927074274 0 
0.029424407726 0.015214133395 0 0.029979585231 0.015501192516 0 0.030534762735 0.015788251636 0 
0.031089940239 0.016075310757 0 0.031645117743 0.016362369878 0 0.032200295248 0.016649428998 0 
0.032755472752 0.016936488119 0 0.033310650256 0.01722354724 0 0.03386582776 0.01751060636 0 
0.034421005265 0.017797665481 0 0.034976182769 0.018084724602 0 0.035531360273 0.018371783722 0 
0.025109865337 0.016416292602 0 0.025632987531 0.016758298697 0 0.026156109726 0.017100304793 0 
0.02667923192 0.017442310889 0 0.027202354115 0.017784316985 0 0.027725476309 0.018126323081 0 
0.028248598504 0.018468329177 0 0.028771720698 0.018810335273 0 0.029294842893 0.019152341368 0 
0.029817965087 0.019494347464 0 0.030341087282 0.01983635356 0 0.030864209476 0.020178359656 0 
0.031387331671 0.020520365752 0 0.031910453865 0.020862371848 0 0.03243357606 0.021204377944 0 
0.032956698254 0.02154638404 0 0.033479820449 0.021888390135 0 0.023290595627 0.018908943792 0 
0.023775816369 0.019302880121 0 0.024261037112 0.01969681645 0 0.024746257854 0.020090752779 0 
0.025231478596 0.020484689108 0 0.025716699338 0.020878625437 0 0.026201920081 0.021272561766 0 
0.026687140823 0.021666498095 0 0.027172361565 0.022060434424 0 0.027657582307 0.022454370753 0 
0.02814280305 0.022848307082 0 0.028628023792 0.023242243411 0 0.029113244534 0.02363617974 0 
0.029598465276 0.024030116069 0 0.030083686019 0.024424052398 0 0.030568906761 0.024817988727 0 
0.031054127503 0.025211925056 0 0.021213203436 0.021213203436 0 0.021655145174 0.021655145174 0 
0.022097086912 0.022097086912 0 0.02253902865 0.02253902865 0 0.022980970389 0.022980970389 0 
0.023422912127 0.023422912127 0 0.023864853865 0.023864853865 0 0.024306795603 0.024306795603 0 
0.024748737342 0.024748737342 0 0.02519067908 0.02519067908 0 0.025632620818 0.025632620818 0 
0.026074562556 0.026074562556 0 0.026516504294 0.026516504294 0 0.026958446033 0.026958446033 0 
0.027400387771 0.027400387771 0 0.027842329509 0.027842329509 0 0.028284271247 0.028284271247 0 
0.018908943792 0.023290595627 0 0.019302880121 0.023775816369 0 0.01969681645 0.024261037112 0 
0.020090752779 0.024746257854 0 0.020484689108 0.025231478596 0 0.020878625437 0.025716699338 0 
0.021272561766 0.026201920081 0 0.021666498095 0.026687140823 0 0.022060434424 0.027172361565 0 
0.022454370753 0.027657582307 0 0.022848307082 0.02814280305 0 0.023242243411 0.028628023792 0 
0.02363617974 0.029113244534 0 0.024030116069 0.029598465276 0 0.024424052398 0.030083686019 0 
0.024817988727 0.030568906761 0 0.025211925056 0.031054127503 0 0.016416292602 0.025109865337 0 
0.016758298697 0.025632987531 0 0.017100304793 0.026156109726 0 0.017442310889 0.02667923192 0 
0.017784316985 0.027202354115 0 0.018126323081 0.027725476309 0 0.018468329177 0.028248598504 0 
0.018810335273 0.028771720698 0 0.019152341368 0.029294842893 0 0.019494347464 0.029817965087 0 
0.01983635356 0.030341087282 0 0.020178359656 0.030864209476 0 0.020520365752 0.031387331671 0 
0.020862371848 0.031910453865 0 0.021204377944 0.03243357606 0 0.02154638404 0.032956698254 0 
0.021888390135 0.033479820449 0 0.013778837792 0.026648520205 0 0.014065896912 0.027203697709 0 
0.014352956033 0.027758875213 0 0.014640015154 0.028314052718 0 0.014927074274 0.028869230222 0 
0.015214133395 0.029424407726 0 0.015501192516 0.029979585231 0 0.015788251636 0.030534762735 0 
0.016075310757 0.031089940239 0 0.016362369878 0.031645117743 0 0.016649428998 0.032200295248 0 
0.016936488119 0.032755472752 0 0.01722354724 0.033310650256 0 0.01751060636 0.03386582776 0 
0.017797665481 0.034421005265 0 0.018084724602 0.034976182769 0 0.018371783722 0.035531360273 0 
0.011042841287 0.027893649032 0 0.01127290048 0.02847476672 0 0.011502959674 0.029055884408 0 
0.011733018867 0.029637002096 0 0.011963078061 0.030218119785 0 0.012193137254 0.030799237473 0 
0.012423196448 0.031380355161 0 0.012653255641 0.031961472849 0 0.012883314835 0.032542590537 0 
0.013113374028 0.033123708225 0 0.013343433222 0.033704825914 0 0.013573492415 0.034285943602 0 
0.013803551609 0.03486706129 0 0.014033610802 0.035448178978 0 0.014263669996 0.036029296666 0 
0.014493729189 0.036610414354 0 0.014723788382 0.037191532042 0 0.0082547464454 0.028841968746 0 
0.0084267203296 0.029442843094 0 0.0085986942139 0.030043717443 0 0.0087706680982 0.030644591792 0 
0.0089426419825 0.031245466141 0 0.0091146158668 0.03184634049 0 0.009286589751 0.032447214839 0 
0.0094585636353 0.033048089188 0 0.0096305375196 0.033648963537 0 0.0098025114039 0.034249837885 0 
0.0099744852881 0.034850712234 0 0.010146459172 0.035451586583 0 0.010318433057 0.036052460932 0 
0.010490406941 0.036653335281 0 0.010662380825 0.03725420963 0 0.01083435471 0.037855083979 0 
0.011006328594 0.038455958327 0 0.0054588915724 0.029499161052 0 0.0055726184801 0.030113726908 0 
0.0056863453879 0.030728292763 0 0.0058000722956 0.031342858618 0 0.0059137992034 0.031957424474 0 
0.0060275261112 0.032571990329 0 0.0061412530189 0.033186556184 0 0.0062549799267 0.033801122039 0 
0.0063687068344 0.034415687895 0 0.0064824337422 0.03503025375 0 0.0065961606499 0.035644819605 0 
0.0067098875577 0.03625938546 0 0.0068236144655 0.036873951316 0 0.0069373413732 0.037488517171 0 
0.007051068281 0.038103083026 0 0.0071647951887 0.038717648881 0 0.0072785220965 0.039332214737 0 
0.0026956331369 0.029878647258 0 0.0027517921606 0.030501119076 0 0.0028079511843 0.031123590894 0 
0.002864110208 0.031746062712 0 0.0029202692317 0.03236853453 0 0.0029764282554 0.032991006348 0 
0.003032587279 0.033613478166 0 0.0030887463027 0.034235949984 0 0.0031449053264 0.034858421801 0 
0.0032010643501 0.035480893619 0 0.0032572233738 0.036103365437 0 0.0033133823975 0.036725837255 0 
0.0033695414212 0.037348309073 0 0.0034257004448 0.037970780891 0 0.0034818594685 0.038593252709 0 
0.0035380184922 0.039215724527 0 0.0035941775159 0.039838196345 0 4.9065389334e-18 0.03 0 
5.0598682751e-18 0.030625 0 5.2131976167e-18 0.03125 0 5.3665269584e-18 0.031875 0 
5.5198563001e-18 0.0325 0 5.6731856417e-18 0.033125 0 5.8265149834e-18 0.03375 0 
5.9798443251e-18 0.034375 0 6.1331736667e-18 0.035 0 6.2865030084e-18 0.035625 0 
6.4398323501e-18 0.03625 0 6.5931616917e-18 0.036875 0 6.7464910334e-18 0.0375 0 
6.8998203751e-18 0.038125 0 7.0531497167e-18 0.03875 0 7.2064790584e-18 0.039375 0 
7.3598084001e-18 0.04 0 
CELLS 257 1024
OFFSETS vtktypeint64
0 4 8 12 16 20 24 28 32 
36 40 44 48 52 56 60 64 68 
72 76 80 84 88 92 96 100 104 
108 112 116 120 124 128 132 136 140 
144 148 152 156 160 164 168 172 176 
180 184 188 192 196 200 204 208 212 
216 220 224 228 232 236 240 244 248 
252 256 260 264 268 272 276 280 284 
288 292 296 300 304 308 312 316 320 
324 328 332 336 340 344 348 352 356 
360 364 368 372 376 380 384 388 392 
396 400 404 408 412 416 420 424 428 
432 436 440 444 448 452 456 460 464 
468 472 476 480 484 488 492 496 500 
504 508 512 516 520 524 528 532 536 
540 544 548 552 556 560 564 568 572 
576 580 584 588 592 596 600 604 608 
612 616 620 624 628 632 636 640 644 
648 652 656 660 664 668 672 676 680 
684 688 692 696 700 704 708 712 716 
720 724 728 732 736 740 744 748 752 
756 760 764 768 772 776 780 784 788 
792 796 800 804 808 812 816 820 824 
828 832 836 840 844 848 852 856 860 
864 868 872 876 880 884 888 892 896 
900 904 908 912 916 920 924 928 932 
936 940 944 948 952 956 960 964 968 
972 976 980 984 988 992 996 1000 1004 
1008 1012 1016 1020 1024 
CONNECTIVITY vtktypeint64
0 17 18 1 1 18 19 2 2 
19 20 3 3 20 21 4 4 21 
22 5 5 22 23 6 6 23 24 
7 7 24 25 8 8 25 26 9 
9 26 27 10 10 27 28 11 11 
28 29 12 12 29 30 13 13 30 
31 14 14 31 32 15 15 32 33 
16 17 34 35 18 18 35 36 19 
19 36 37 20 20 37 38 21 21 
38 39 22 22 39 40 23 23 40 
41 24 24 41 42 25 25 42 43 
26 26 43 44 27 27 44 45 28 
28 45 46 29 29 46 47 30 30 
47 48 31 31 48 49 32 32 49 
50 33 34 51 52 35 35 52 53 
36 36 53 54 37 37 54 55 38 
38 55 56 39 39 56 57 40 40 
57 58 41 41 58 59 42 42 59 
60 43 43 60 61 44 44 61 62 
45 45 62 63 46 46 63 64 47 
47 64 65 48 48 65 66 49 49 
66 67 50 51 68 69 52 52 69 
70 53 53 70 71 54 54 71 72 
55 55 72 73 56 56 73 74 57 
57 74 75 58 58 75 76 59 59 
76 77 60 60 77 78 61 61 78 
79 62 62 79 80 63 63 80 81 
64 64 81 82 65 65 82 83 66 
66 83 84 67 68 85 86 69 69 
86 87 70 70 87 88 71 71 88 
89 72 72 89 90 73 73 90 91 
74 74 91 92 75 75 92 93 76 
76 93 94 77 77 94 95 78 78 
95 96 79 79 96 97 80 80 97 
98 81 81 98 99 82 82 99 100 
83 83 100 101 84 85 102 103 86 
86 103 104 87 87 104 105 88 88 
105 106 89 89 106 107 90 90 107 
108 91 91 108 109 92 92 109 110 
93 93 110 111 94 94 111 112 95 
95 112 113 96 96 113 114 97 97 
114 115 98 98 115 116 99 99 116 
117 100 100 117 118 101 102 119 120 
103 103 120 121 104 104 121 122 105 
105 122 123 106 106 123 124 107 107 
124 125 108 108 125 126 109 109 126 
127 110 110 127 128 111 111 128 129 
112 112 129 130 113 113 130 131 114 
114 131 132 115 115 132 133 116 116 
133 134 117 117 134 135 118 119 136 
137 120 120 137 138 121 121 138 139 
122 122 139 140 123 123 140 141 124 
124 141 142 125 125 142 143 126 126 
143 144 127 127 144 145 128 128 145 
146 129 129 146 147 130 130 147 148 
131 131 148 149 132 132 149 150 133 
133 150 151 134 134 151 152 135 136 
153 154 137 137 154 155 138 138 155 
156 139 139 156 157 140 140 157 158 
141 141 158 159 142 142 159 160 143 
143 160 161 144 144 161 162 145 145 
162 163 146 146 163 164 147 147 164 
165 148 148 165 166 149 149 166 167 
150 150 167 168 151 151 168 169 152 
153 170 171 154 154 171 172 155 155 
172 173 156 156 173 174 157 157 174 
175 158 158 175 176 159 159 176 177 
160 160 177 178 161 161 178 179 162 
162 179 180 163 163 180 181 164 164 
181 182 165 165 182 183 166 166 183 
184 167 167 184 185 168 168 185 186 
169 170 187 188 171 171 188 189 172 
172 189 190 173 173 190 191 174 174 
191 192 175 175 192 193 176 176 193 
194 177 177 194 195 178 178 195 196 
179 179 196 197 180 180 197 198 181 
181 198 199 182 182 199 200 183 183 
200 201 184 184 201 202 185 185 202 
203 186 187 204 205 188 188 205 206 
189 189 206 207 190 190 207 208 191 
191 208 209 192 192 209 210 193 193 
210 211 194 194 211 212 195 195 212 
213 196 196 213 214 197 197 214 215 
198 198 215 216 199 199 216 217 200 
200 217 218 201 201 218 219 202 202 
219 220 203 204 221 222 205 205 222 
223 206 206 223 224 207 207 224 225 
208 208 225 226 209 209 226 227 210 
210 227 228 211 211 228 229 212 212 
229 230 213 213 230 231 214 214 231 
232 215 215 232 233 216 216 233 234 
217 217 234 235 218 218 235 236 219 
219 236 237 220 221 238 239 222 222 
239 240 223 223 240 241 224 224 241 
242 225 225 242 243 226 226 243 244 
227 227 244 245 228 228 245 246 229 
229 246 247 230 230 247 248 231 231 
248 249 232 232 249 250 233 233 250 
251 234 234 251 252 235 235 252 253 
236 236 253 254 237 238 255 256 239 
239 256 257 240 240 257 258 241 241 
258 259 242 242 259 260 243 243 260 
261 244 244 261 262 245 245 262 263 
246 246 263 264 247 247 264 265 248 
248 265 266 249 249 266 267 250 250 
267 268 251 251 268 269 252 252 269 
270 253 253 270 271 254 255 272 273 
256 256 273 274 257 257 274 275 258 
258 275 276 259 259 276 277 260 260 
277 278 261 261 278 279 262 262 279 
280 263 263 280 281 264 264 281 282 
265 265 282 283 266 266 283 284 267 
267 284 285 268 268 285 286 269 269 
286 287 270 270 287 288 271 
CELL_TYPES 256
9
9
9
9
9
9
9
9
9
9
9
9
9
9
9
9
9
9
9
9
9
9
9
9
9
9
9
9
9
9
9
9
9
9
9
9
9
9
9
9
9
9
9
9
9
9
9
9
9
9
9
9
9
9
9
9
9
9
9
9
9
9
9
9
9
9
9
9
9
9
9
9
9
9
9
9
9
9
9
9
9
9
9
9
9
9
9
9
9
9
9
9
9
9
9
9
9
9
9
9
9
9
9
9
9
9
9
9
9
9
9
9
9
9
9
9
9
9
9
9
9
9
9
9
9
9
9
9
9
9
9
9
9
9
9
9
9
9
9
9
9
9
9
9
9
9
9
9
9
9
9
9
9
9
9
9
9
9
9
9
9
9
9
9
9
9
9
9
9
9
9
9
9
9
9
9
9
9
9
9
9
9
9
9
9
9
9
9
9
9
9
9
9
9
9
9
9
9
9
9
9
9
9
9
9
9
9
9
9
9
9
9
9
9
9
9
9
9
9
9
9
9
9
9
9
9
9
9
9
9
9
9
9
9
9
9
9
9
9
9
9
9
9
9
9
9
9
9
9
9
9
9
9
9
9
9

POINT_DATA 289
FIELD FieldData 11
P1 1 289 double
-10606215.52 3258950.255 -3964940.0706 -2235139.8951 9084593.0608 22007242.731 27799804.245 30894603.421 32154412.619 
32294631.319 31575553.279 29993096.503 27229488.819 22760600.124 14603808.937 4871820.7749 -1853790.4844 -10983196.43 
3374784.4098 -4105867.5035 -2314584.3557 9407490.3409 22789454.853 28787903.67 31992702.515 33297289.609 33442492.158 
32697855.644 31059152.981 28197317.297 23569589.126 15122877.888 5044981.8258 -1919680.4919 -11332279.08 3482046.3236 
-4236365.6818 -2388149.5749 9706491.7902 23513779.811 29702879.356 33009537.408 34355588.636 34505406.207 33737102.658 
32046316.553 29093522.177 24318709.355 15603533.435 5205328.191 -1980694.3467 -11645467.558 3578279.1101 -4353445.4767 
-2454150.5017 9974748.6315 24163626.576 30523773.327 33921816.985 35305068.826 35459026.883 34669489.845 32931975.741 
29897575.435 24990801.836 16034765.921 5349187.0563 -2035434.4959 -11914886.577 3661062.9436 -4454162.8594 -2510927.5115 
10205515.407 24722654.416 31229943.777 34706601.505 36121855.012 36279374.903 35471571.849 33693860.189 30589258.738 
25568966.456 16405731.783 5472941.0168 -2082524.47 -12133211.144 3728147.0888 -4535779.5136 -2556936.9432 10392518.003 
25175664.42 31802191.268 35342554.159 36783740.318 36944146.553 36121541.574 34311255.695 31149766.521 26037484.011 
16706345.159 5573225.4357 -2120683.9816 -12294120.811 3777589.4746 -4595932.6553 -2590846.8345 10530342.738 25509542.049 
32223949.362 35811264.259 37271563.313 37434096.842 36600582.543 34766288.798 31562872.21 26382791.022 16927903.36 
5647137.1015 -2148808.3214 -12392731.655 3807889.4278 -4632796.5194 -2611627.954 10614806.361 25714153.466 32482416.876 
36098505.539 37570517.616 37734354.822 36894154.926 35045148.355 31816037.241 26594406.747 17063681.662 5692432.6509 
-2166043.8607 -12425954.414 3818097.7175 -4645216.2415 -2618629.2746 10643262.812 25783088.642 32569496.589 36195279.358 
37671237.643 37835514.069 36993061.742 35139098.306 31901330.506 26665701.729 17109426.426 5707693.0734 -2171850.6478 
-12392731.655 3807889.4278 -4632796.5194 -2611627.954 10614806.361 25714153.466 32482416.876 36098505.539 37570517.616 
37734354.822 36894154.926 35045148.355 31816037.241 26594406.747 17063681.662 5692432.6509 -2166043.8607 -12294120.811 
3777589.4746 -4595932.6553 -2590846.8345 10530342.738 25509542.049 32223949.362 35811264.259 37271563.313 37434096.842 
36600582.543 34766288.798 31562872.21 26382791.022 16927903.36 5647137.1015 -2148808.3214 -12133211.144 3728147.0888 
-4535779.5136 -2556936.9432 10392518.003 25175664.42 31802191.268 35342554.159 36783740.318 36944146.552 36121541.574 
34311255.695 31149766.521 26037484.011 16706345.159 5573225.4357 -2120683.9816 -11914886.577 3661062.9436 -4454162.8594 
-2510927.5115 10205515.407 24722654.416 31229943.777 34706601.505 36121855.012 36279374.903 35471571.849 33693860.189 
30589258.738 25568966.456 16405731.783 5472941.0168 -2082524.47 -11645467.558 3578279.1101 -4353445.4767 -2454150.5017 
9974748.6315 24163626.576 30523773.327 33921816.985 35305068.826 35459026.883 34669489.845 32931975.741 29897575.435 
24990801.836 16034765.921 5349187.0563 -2035434.4959 -11332279.08 3482046.3236 -4236365.6817 -2388149.5749 9706491.7902 
23513779.811 29702879.356 33009537.408 34355588.636 34505406.207 33737102.658 32046316.553 29093522.177 24318709.355 
15603533.435 5205328.191 -1980694.3467 -10983196.43 3374784.4098 -4105867.5035 -2314584.3557 9407490.3409 22789454.853 
28787903.67 31992702.515 33297289.609 33442492.158 32697855.644 31059152.981 28197317.297 23569589.126 15122877.888 
5044981.8258 -1919680.4919 -10606215.52 3258950.255 -3964940.0706 -2235139.8951 9084593.0608 22007242.731 27799804.245 
30894603.421 32154412.619 32294631.319 31575553.279 29993096.503 27229488.819 22760600.124 14603808.937 4871820.7749 
-1853790.4844 
P2 1 289 double
-235592069.7 -111062699.76 -46940834.998 -11924452.804 -3292607.2716 -4679254.7451 -4018549.0727 -3531650.8685 -2938795.0268 
-2338975.492 -1745453.9153 -1172921.8028 -623206.92793 -166603.02263 628142.57886 -1085919.7706 -20852047.629 -243965811.71 
-115010245.18 -48609271.64 -12348288.341 -3409637.7131 -4845571.3453 -4161381.9502 -3657177.7308 -3043249.7798 -2422110.6224 
-1807493.2737 -1214611.426 -645357.818 -172524.65944 650468.8992 -1124517.0455 -21593200.195 -251719859.68 -118665654.73 
-50154236.576 -12740758.17 -3518007.3837 -4999579.7802 -4293644.5618 -3773415.0488 -3139974.4178 -2499093.3841 -1864941.4441 
-1253215.8319 -665869.44377 -178008.06885 671142.97265 -1160257.9512 -22279504.186 -258676603.25 -121945199.43 -51540341.602 
-13092872.57 -3615234.0196 -5137752.4077 -4412307.3649 -3877700.3479 -3226753.4143 -2568160.4488 -1916482.5479 -1287850.7678 
-684271.97665 -182927.65096 689691.24903 -1192323.8243 -22895239.463 -264661111.51 -124766413.42 -52732732.395 -13395777.445 
-3698872.8088 -5256614.8072 -4514386.523 -3967411.3209 -3301404.667 -2627575.0894 -1960820.5572 -1317645.32 -700102.67505 
-187159.69984 705647.32289 -1219908.3513 -23424923.044 -269510676.98 -127052593.23 -53698990.099 -13641237.381 -3766649.7698 
-5352935.3338 -4597106.6962 -4040108.8956 -3361898.549 -2675721.9341 -1996750.0053 -1341789.4309 -712931.13232 -190589.15426 
718577.37848 -1242261.5614 -23854153.834 -273084905.82 -128737554.47 -54411141.772 -13822146.37 -3816602.775 -5423925.5301 
-4658073.1542 -4093688.4937 -3406483.7762 -2711207.1424 -2023230.7427 -1359584.1341 -722385.96745 -193116.73224 728107.09368 
-1258736.3339 -24170505.697 -275275313.21 -129770155.26 -54847572.217 -13933013.47 -3847215.653 -5467430.7049 -4695435.4457 
-4126523.8696 -3433807.0998 -2732953.669 -2039459.0273 -1370489.3254 -728180.20772 -194665.71685 733947.22297 -1268832.6275 
-24364376.735 -276013278.48 -130118046.49 -54994609.024 -13970365.458 -3857529.3694 -5482087.9363 -4708023.0919 -4137586.3628 
-3443012.5397 -2740280.2427 -2044926.4624 -1374163.369 -730132.33229 -195187.5818 735914.8079 -1272234.1472 -24429693.394 
-275275313.21 -129770155.26 -54847572.217 -13933013.47 -3847215.653 -5467430.7049 -4695435.4457 -4126523.8696 -3433807.0998 
-2732953.669 -2039459.0273 -1370489.3254 -728180.20772 -194665.71685 733947.22297 -1268832.6275 -24364376.735 -273084905.82 
-128737554.47 -54411141.772 -13822146.37 -3816602.775 -5423925.5301 -4658073.1542 -4093688.4937 -3406483.7762 -2711207.1424 
-2023230.7427 -1359584.1341 -722385.96744 -193116.73224 728107.09367 -1258736.3339 -24170505.697 -269510676.98 -127052593.23 
-53698990.099 -13641237.381 -3766649.7698 -5352935.3338 -4597106.6962 -4040108.8956 -3361898.549 -2675721.9341 -1996750.0053 
-1341789.4309 -712931.13232 -190589.15427 718577.37848 -1242261.5614 -23854153.834 -264661111.51 -124766413.42 -52732732.395 
-13395777.445 -3698872.8088 -5256614.8072 -4514386.523 -3967411.3209 -3301404.667 -2627575.0894 -1960820.5572 -1317645.32 
-700102.67505 -187159.69983 705647.32289 -1219908.3513 -23424923.044 -258676603.25 -121945199.43 -51540341.602 -13092872.57 
-3615234.0196 -5137752.4077 -4412307.3649 -3877700.3479 -3226753.4143 -2568160.4488 -1916482.5479 -1287850.7678 -684271.97665 
-182927.65096 689691.24902 -1192323.8243 -22895239.463 -251719859.68 -118665654.73 -50154236.576 -12740758.17 -3518007.3837 
-4999579.7802 -4293644.5618 -3773415.0488 -3139974.4178 -2499093.3841 -1864941.4441 -1253215.8319 -665869.44377 -178008.06885 
671142.97265 -1160257.9512 -22279504.186 -243965811.71 -115010245.18 -48609271.64 -12348288.341 -3409637.7131 -4845571.3453 
-4161381.9502 -3657177.7308 -3043249.7798 -2422110.6224 -1807493.2737 -1214611.426 -645357.818 -172524.65944 650468.89919 
-1124517.0455 -21593200.195 -235592069.7 -111062699.76 -46940834.998 -11924452.804 -3292607.2716 -4679254.7451 -4018549.0727 
-3531650.8685 -2938795.0268 -2338975.492 -1745453.9153 -1172921.8028 -623206.92794 -166603.02263 628142.57886 -1085919.7705 
-20852047.629 
displacement 3 289 double
4.4621460946e-06 0 0 5.2345812522e-06 0 0 5.6426442127e-06 0 0 
5.8470658266e-06 0 0 5.9367048318e-06 0 0 5.9627383228e-06 0 0 
5.9540620837e-06 0 0 5.9272365901e-06 0 0 5.8918400601e-06 0 0 
5.8536816935e-06 0 0 5.8167276055e-06 0 0 5.7844210287e-06 0 0 
5.7608172697e-06 0 0 5.7518592295e-06 0 0 5.7673207717e-06 0 0 
5.8235736072e-06 0 0 5.9495229895e-06 0 0 4.6016761736e-06 4.1904300021e-07 0 
5.3982651657e-06 4.9158288103e-07 0 5.8190881427e-06 5.2990433524e-07 0 6.0299019641e-06 5.4910170004e-07 0 
6.1223439563e-06 5.5751975648e-07 0 6.1491915074e-06 5.5996457832e-07 0 6.1402439647e-06 5.5914978714e-07 0 
6.1125796453e-06 5.5663058784e-07 0 6.0760762755e-06 5.5330647701e-07 0 6.0367247073e-06 5.4972300034e-07 0 
5.9986150752e-06 5.4625261825e-07 0 5.9652982806e-06 5.4321868691e-07 0 5.9409564385e-06 5.4100204277e-07 0 
5.931718283e-06 5.4016078748e-07 0 5.9476633033e-06 5.4161279082e-07 0 6.0056751495e-06 5.4689553066e-07 0 
6.1355629343e-06 5.5872351789e-07 0 4.6872228202e-06 8.7185159175e-07 0 5.4986206591e-06 1.0227764623e-06 0 
5.9272668711e-06 1.1025072318e-06 0 6.1419997895e-06 1.1424488441e-06 0 6.2361603082e-06 1.159963266e-06 0 
6.263506964e-06 1.1650499082e-06 0 6.2543930836e-06 1.1633546717e-06 0 6.2262144755e-06 1.1581132814e-06 0 
6.1890324963e-06 1.15119721e-06 0 6.1489493697e-06 1.1437415078e-06 0 6.1101312673e-06 1.1365211076e-06 0 
6.0761951027e-06 1.1302087772e-06 0 6.0514007379e-06 1.1255968764e-06 0 6.041990842e-06 1.1238465793e-06 0 
6.0582322855e-06 1.1268675853e-06 0 6.1173225906e-06 1.1378587369e-06 0 6.2496250313e-06 1.1624677854e-06 0 
4.7091653958e-06 1.3519249937e-06 0 5.5243616797e-06 1.5859546229e-06 0 5.9550145387e-06 1.7095880727e-06 0 
6.1707526992e-06 1.7715229989e-06 0 6.2653540171e-06 1.7986815027e-06 0 6.2928286924e-06 1.8065690363e-06 0 
6.2836721467e-06 1.8039403405e-06 0 6.2553616244e-06 1.7958128488e-06 0 6.218005583e-06 1.7850885353e-06 0 
6.1777348129e-06 1.7735274505e-06 0 6.1387349889e-06 1.7623312337e-06 0 6.1046399569e-06 1.7525431031e-06 0 
6.0797295208e-06 1.745391721e-06 0 6.0702755739e-06 1.7426776461e-06 0 6.0865930493e-06 1.7473621287e-06 0 
6.1459599775e-06 1.7644054107e-06 0 6.2788817734e-06 1.8025651021e-06 0 4.659524235e-06 1.8483243142e-06 0 
5.4661272149e-06 2.1682848562e-06 0 5.8922403931e-06 2.3373139905e-06 0 6.1057043729e-06 2.4219901601e-06 0 
6.1993084613e-06 2.4591207132e-06 0 6.2264935153e-06 2.4699043885e-06 0 6.2174334922e-06 2.4663104892e-06 0 
6.1894214023e-06 2.4551987481e-06 0 6.1524591456e-06 2.4405366852e-06 0 6.1126128855e-06 2.4247306055e-06 0 
6.074024174e-06 2.4094233659e-06 0 6.0402885511e-06 2.3960412331e-06 0 6.0156407057e-06 2.3862640091e-06 0 
6.0062864165e-06 2.3825533813e-06 0 6.022431883e-06 2.3889579104e-06 0 6.081173001e-06 2.4122591384e-06 0 
6.2126936161e-06 2.4644302912e-06 0 4.5330812993e-06 2.3469017606e-06 0 5.3177959396e-06 2.7531702674e-06 0 
5.7323459199e-06 2.9677942758e-06 0 5.9400172456e-06 3.0753114738e-06 0 6.0310812515e-06 3.1224578323e-06 0 
6.0575285996e-06 3.1361503571e-06 0 6.0487144335e-06 3.1315870191e-06 0 6.0214624921e-06 3.1174779341e-06 0 
5.9855032598e-06 3.0988608434e-06 0 5.9467382856e-06 3.0787911424e-06 0 5.9091967346e-06 3.0593548416e-06 0 
5.8763765767e-06 3.0423629366e-06 0 5.8523975863e-06 3.0299483491e-06 0 5.8432971393e-06 3.0252367955e-06 0 
5.8590044752e-06 3.0333689185e-06 0 5.916151568e-06 3.0629555514e-06 0 6.0441031808e-06 3.1291996458e-06 0 
4.3281529842e-06 2.8318871003e-06 0 5.0773928032e-06 3.3221106636e-06 0 5.4732021028e-06 3.5810865487e-06 0 
5.6714851709e-06 3.7108220883e-06 0 5.75843242e-06 3.7677112033e-06 0 5.7836841553e-06 3.7842332772e-06 0 
5.7752684536e-06 3.7787269291e-06 0 5.7492484987e-06 3.7617022133e-06 0 5.7149148857e-06 3.7392379159e-06 0 
5.677902371e-06 3.7150208276e-06 0 5.6420579717e-06 3.6915680309e-06 0 5.6107215242e-06 3.6710647627e-06 0 
5.5878265589e-06 3.6560847107e-06 0 5.5791375184e-06 3.6503995184e-06 0 5.5941347682e-06 3.660212138e-06 0 
5.6486983959e-06 3.6959128246e-06 0 5.7708656632e-06 3.7758462072e-06 0 4.0471224516e-06 3.2869716628e-06 0 
4.747713513e-06 3.8559742057e-06 0 5.1178225893e-06 4.1565675434e-06 0 5.3032309748e-06 4.3071515982e-06 0 
5.3845326674e-06 4.3731828001e-06 0 5.4081447868e-06 4.3923599731e-06 0 5.4002755236e-06 4.3859687543e-06 0 
5.3759450657e-06 4.3662081647e-06 0 5.3438407625e-06 4.3401338524e-06 0 5.3092315007e-06 4.3120250753e-06 0 
5.2757145078e-06 4.2848034117e-06 0 5.2464127615e-06 4.2610052661e-06 0 5.2250043852e-06 4.2436179181e-06 0 
5.2168795312e-06 4.2370191148e-06 0 5.2309029973e-06 4.2484086234e-06 0 5.2819237638e-06 4.2898464141e-06 0 
5.3961586099e-06 4.3826250999e-06 0 3.6965746562e-06 3.6965746562e-06 0 4.336482935e-06 4.336482935e-06 0 
4.6745344389e-06 4.6745344389e-06 0 4.8438833892e-06 4.8438833892e-06 0 4.9181430095e-06 4.9181430095e-06 0 
4.9397099284e-06 4.9397099284e-06 0 4.9325222737e-06 4.9325222737e-06 0 4.9102992362e-06 4.9102992362e-06 0 
4.880975697e-06 4.880975697e-06 0 4.8493641702e-06 4.8493641702e-06 0 4.8187503037e-06 4.8187503037e-06 0 
4.7919865737e-06 4.7919865737e-06 0 4.7724325171e-06 4.7724325171e-06 0 4.76501141e-06 4.76501141e-06 0 
4.7778202118e-06 4.7778202118e-06 0 4.8244217353e-06 4.8244217353e-06 0 4.9287619529e-06 4.9287619529e-06 0 
3.2869716628e-06 4.0471224516e-06 0 3.8559742056e-06 4.747713513e-06 0 4.1565675434e-06 5.1178225893e-06 0 
4.3071515982e-06 5.3032309748e-06 0 4.3731828001e-06 5.3845326675e-06 0 4.3923599731e-06 5.4081447868e-06 0 
4.3859687543e-06 5.4002755236e-06 0 4.3662081647e-06 5.3759450657e-06 0 4.3401338524e-06 5.3438407625e-06 0 
4.3120250753e-06 5.3092315007e-06 0 4.2848034117e-06 5.2757145078e-06 0 4.2610052661e-06 5.2464127616e-06 0 
4.2436179181e-06 5.2250043852e-06 0 4.2370191148e-06 5.2168795312e-06 0 4.2484086234e-06 5.2309029973e-06 0 
4.2898464141e-06 5.2819237638e-06 0 4.3826250999e-06 5.3961586099e-06 0 2.8318871003e-06 4.3281529842e-06 0 
3.3221106636e-06 5.0773928032e-06 0 3.5810865487e-06 5.4732021028e-06 0 3.7108220883e-06 5.6714851709e-06 0 
3.7677112033e-06 5.75843242e-06 0 3.7842332772e-06 5.7836841553e-06 0 3.7787269291e-06 5.7752684536e-06 0 
3.7617022133e-06 5.7492484987e-06 0 3.7392379159e-06 5.7149148857e-06 0 3.7150208276e-06 5.677902371e-06 0 
3.6915680309e-06 5.6420579717e-06 0 3.6710647627e-06 5.6107215242e-06 0 3.6560847107e-06 5.5878265589e-06 0 
3.6503995184e-06 5.5791375184e-06 0 3.660212138e-06 5.5941347683e-06 0 3.6959128246e-06 5.6486983959e-06 0 
3.7758462072e-06 5.7708656632e-06 0 2.3469017606e-06 4.5330812993e-06 0 2.7531702674e-06 5.3177959396e-06 0 
2.9677942758e-06 5.7323459199e-06 0 3.0753114738e-06 5.9400172456e-06 0 3.1224578323e-06 6.0310812515e-06 0 
3.1361503571e-06 6.0575285996e-06 0 3.1315870191e-06 6.0487144335e-06 0 3.1174779341e-06 6.0214624921e-06 0 
3.0988608434e-06 5.9855032598e-06 0 3.0787911424e-06 5.9467382856e-06 0 3.0593548416e-06 5.9091967347e-06 0 
3.0423629366e-06 5.8763765767e-06 0 3.0299483491e-06 5.8523975863e-06 0 3.0252367955e-06 5.8432971393e-06 0 
3.0333689185e-06 5.8590044752e-06 0 3.0629555514e-06 5.916151568e-06 0 3.1291996458e-06 6.0441031808e-06 0 
1.8483243142e-06 4.659524235e-06 0 2.1682848562e-06 5.4661272149e-06 0 2.3373139905e-06 5.8922403931e-06 0 
2.4219901601e-06 6.1057043729e-06 0 2.4591207132e-06 6.1993084613e-06 0 2.4699043885e-06 6.2264935153e-06 0 
2.4663104892e-06 6.2174334922e-06 0 2.4551987481e-06 6.1894214023e-06 0 2.4405366852e-06 6.1524591456e-06 0 