# vtk DataFile Version 5.1
vtk output
ASCII
DATASET UNSTRUCTURED_GRID
POINTS 27 double
0 0 0 0 0 0.5 0 0 1 
0 0.5 0 0 0.5 0.5 0 0.5 1 
0 1 0 0 1 0.5 0 1 1 
0.5 0 0 0.5 0 0.5 0.5 0 1 
0.5 0.5 0 0.5 0.5 0.5 0.5 0.5 1 
0.5 1 0 0.5 1 0.5 0.5 1 1 
1 0 0 1 0 0.5 1 0 1 
1 0.5 0 1 0.5 0.5 1 0.5 1 
1 1 0 1 1 0.5 1 1 1 

CELLS 9 64
OFFSETS vtktypeint64
0 8 16 24 32 40 48 56 64 

CONNECTIVITY vtktypeint64
0 9 12 3 1 10 13 4 1 
10 13 4 2 11 14 5 3 12 
15 6 4 13 16 7 4 13 16 
7 5 14 17 8 9 18 21 12 
10 19 22 13 10 19 22 13 11 
20 23 14 12 21 24 15 13 22 
25 16 13 22 25 16 14 23 26 
17 
CELL_TYPES 8
12
12
12
12
12
12
12
12

POINT_DATA 27
FIELD FieldData 14
p 1 27 double
1 1 1 1 1 1 1 1 1 
-2.703393065e-14 3.0531133177e-15 -9.3869356732e-14 -1.2045919817e-14 3.0253577421e-15 1.9789725414e-14 1.4316325903e-13 -2.5479618415e-14 3.9190872769e-14 
-1 -1 -1 -1 -1 -1 -1 -1 -1 

u 3 27 double
0 0 0 0 0 8.0544608883e-16 0 0 0 
0.25 1.7261536171e-16 0 0.25 1.9417727295e-16 -2.38152779e-16 0.25 -5.6119056968e-16 0 
0 0 0 0 0 3.8928277439e-16 0 0 0 
2.5177618938e-16 0 0 -2.230468735e-16 0 -2.9745660261e-17 1.2474934003e-15 0 0 
0.25 -5.5092916233e-16 0 0.25 5.4982813299e-17 -2.8654226674e-17 0.25 1.8363799034e-16 0 
-9.7810082377e-16 0 0 2.7339943234e-16 0 9.2654376575e-17 6.4217961456e-16 0 0 
0 0 0 0 0 8.2341114513e-17 0 0 0 
0.25 -3.5126419177e-16 0 0.25 -5.6285672481e-16 -1.1347038788e-16 0.25 -1.0371820878e-16 0 
0 0 0 0 0 5.7538016394e-16 0 0 0 

u_x 1 27 double
0 0 0 0.25 0.25 0.25 0 0 0 
2.5177618938e-16 -2.230468735e-16 1.2474934003e-15 0.25 0.25 0.25 -9.7810082377e-16 2.7339943234e-16 6.4217961456e-16 
0 0 0 0.25 0.25 0.25 0 0 0 

u_x,x 1 27 double
-4.9814503313e-15 3.7672698259e-15 -1.3042493294e-14 -2.7611676974e-15 -1.7090193678e-15 6.0965369027e-15 1.4443029158e-14 -1.6706350117e-15 -4.8625148908e-14 
7.9712023006e-16 -1.5461291828e-16 -4.0963383877e-15 -1.1055970954e-15 4.3332987661e-16 6.8272306461e-16 4.9453956733e-15 -1.2234875431e-15 3.3101425452e-15 
1.7929694111e-15 -3.1488181528e-15 2.9427846845e-14 7.0336008428e-15 5.0035646256e-17 -8.9384514636e-15 -3.4224611851e-14 6.564585184e-15 3.5384578727e-14 

u_x,y 1 27 double
1 1 1 -5.5511151231e-17 -1.1102230246e-16 -5.5511151231e-17 -1 -1 -1 
1 1 1 5.7592819402e-16 -9.9920072216e-16 2.2898349883e-15 -1 -1 -1 
1 1 1 -5.5511151231e-17 -1.1102230246e-16 -5.5511151231e-17 -1 -1 -1 

u_x,z 1 27 double
0 0 0 0 0 0 0 0 0 
-2.6084969715e-15 9.0021304723e-16 5.1729563751e-15 -4.0378284874e-15 7.4618528831e-16 -3.4253332373e-15 1.4067903113e-14 -1.9404470706e-15 1.0537022817e-14 
0 0 0 0 0 0 0 0 0 

u_y 1 27 double
0 0 0 1.7261536171e-16 1.9417727295e-16 -5.6119056968e-16 0 0 0 
0 0 0 -5.5092916233e-16 5.4982813299e-17 1.8363799034e-16 0 0 0 
0 0 0 -3.5126419177e-16 -5.6285672481e-16 -1.0371820878e-16 0 0 0 

u_y,x 1 27 double
0 0 0 -8.3987612808e-15 3.5887593886e-16 -4.4517982683e-15 0 0 0 
0 0 0 1.8349338562e-15 -2.9342117838e-16 -5.4649434705e-15 0 1.7516230804e-46 0 
0 0 0 -2.2480426333e-16 3.1717151691e-15 7.2746312726e-15 0 0 0 

u_y,y 1 27 double
1.5692578004e-14 -3.0229970458e-15 2.4850330016e-14 -3.5431022887e-16 5.5278243612e-17 4.2289018163e-15 -1.4275337089e-14 2.8018840714e-15 -4.1765937281e-14 
-4.0757760193e-15 -1.3442789057e-15 1.6883631561e-16 2.5783037421e-15 -1.2912084713e-16 -1.2847781818e-15 -6.2374389493e-15 1.8607622942e-15 4.9702764117e-15 
5.0330996641e-14 9.9016524197e-15 -2.2100943494e-14 -2.3008548081e-14 1.0367126287e-15 1.3714068223e-14 4.1703195683e-14 -1.4048502934e-14 -3.2755329396e-14 

u_y,z 1 27 double
0 0 0 -9.1909938851e-15 1.7862159073e-15 6.7761842086e-15 0 0 0 
0 0 0 6.0454686159e-16 1.7197733438e-16 -3.9753729026e-17 0 -1.7516230804e-46 8.758115402e-47 
0 0 0 9.4298983374e-15 -2.3138253234e-15 6.4488271603e-15 0 0 0 

u_z 1 27 double
0 8.0544608883e-16 0 0 -2.38152779e-16 0 0 3.8928277439e-16 0 
0 -2.9745660261e-17 0 0 -2.8654226674e-17 0 0 9.2654376575e-17 0 
0 8.2341114513e-17 0 0 -1.1347038788e-16 0 0 5.7538016394e-16 0 

u_z,x 1 27 double
0 5.6774023593e-15 0 0 -2.1936568098e-15 0 0 1.6533976463e-16 0 
0 -3.5310049519e-15 0 0 1.0625096695e-15 -1.7516230804e-46 0 -1.0231134214e-15 0 
0 4.7207497266e-16 0 0 2.8926736902e-16 0 0 -2.0386218847e-16 0 

u_z,y 1 27 double
0 4.593070608e-15 0 0 -1.7068820548e-16 0 0 1.8031050305e-15 0 
0 -2.908981026e-18 1.7516230804e-46 0 -2.3190503574e-16 -4.379057701e-47 0 7.580434727e-16 0 
0 3.3485870532e-15 0 0 4.2649102033e-16 0 0 -2.8799201592e-15 0 

u_z,z 1 27 double
-1.5191819486e-14 1.3949269056e-15 9.6121118638e-15 1.937952217e-15 1.1114281106e-15 -6.3836646596e-15 4.0503742493e-15 -2.5324819001e-15 6.0795533512e-15 
3.909757176e-16 1.6389241121e-16 -1.0465453624e-15 -9.0809857054e-16 -2.6141540167e-19 9.0914423214e-16 -1.3058219448e-15 4.5469302991e-17 1.1239447328e-15 
-1.1206104783e-14 9.2569059356e-16 7.5033424087e-15 5.8448457489e-15 -1.0098033725e-15 -1.8056322588e-15 -2.4695551772e-14 7.9689676521e-15 -7.1803188367e-15 

