# vtk DataFile Version 5.1
vtk output
ASCII
DATASET UNSTRUCTURED_GRID
POINTS 25 double
0 0 0 0 0.5 0 0 1 0 
0 1.5 0 0 2 0 0.5 0 0 
0.5 0.5 0 0.5 1 0 0.5 1.5 0 
0.5 2 0 1 0 0 1 0.5 0 
1 1 0 1 1.5 0 1 2 0 
1.5 0 0 1.5 0.5 0 1.5 1 0 
1.5 1.5 0 1.5 2 0 2 0 0 
2 0.5 0 2 1 0 2 1.5 0 
2 2 0 
CELLS 17 64
OFFSETS vtktypeint64
0 4 8 12 16 20 24 28 32 
36 40 44 48 52 56 60 64 
CONNECTIVITY vtktypeint64
0 5 6 1 1 6 7 2 2 
7 8 3 3 8 9 4 5 10 
11 6 6 11 12 7 7 12 13 
8 8 13 14 9 10 15 16 11 
11 16 17 12 12 17 18 13 13 
18 19 14 15 20 21 16 16 21 
22 17 17 22 23 18 18 23 24 
19 
CELL_TYPES 16
9
9
9
9
9
9
9
9
9
9
9
9
9
9
9
9

CELL_DATA 16
FIELD FieldData 25
Continuous%20global%20L2-projection%20(u^*,p^*)-(u,p)| 1 16 double
7.220840704e-16 6.9554022696e-16 2.2021749779e-15 5.6978332128e-15 1.0519719103e-15 1.0480358342e-15 1.9040283165e-15 3.7868106466e-15 1.2440880997e-15 
7.930213568e-16 1.1296264657e-15 2.325745409e-15 1.6010501213e-15 2.3322294644e-15 8.2310966118e-15 2.822584459e-14 
Continuous%20global%20L2-projection%20eta^rec 1 16 double
0 0 0 0 0 0 0 0 0 
0 0 0 0 0 0 0 
Continuous%20global%20L2-projection%20|(u^*,p^*)-(u^h,p^h)| 1 16 double
5.4019215811e-16 7.5970426693e-16 8.6573237676e-16 2.0710733552e-15 7.0583233046e-16 1.0857714926e-15 1.4334778595e-15 3.5619924376e-15 6.1389005528e-16 
9.8663544522e-16 1.2870311262e-15 4.5694507518e-15 1.085941375e-15 1.6699627007e-15 4.8630656283e-15 8.817807768e-15 
Continuous%20global%20L2-projection%20|div%20u^*|_L2 1 16 double
4.1667615476e-16 5.2616429275e-16 3.5445339289e-16 1.0854725479e-15 2.3935924738e-16 8.6861326259e-16 1.0520980956e-15 1.9552090794e-15 2.981881008e-16 
3.8554344586e-16 7.2617103643e-16 1.5111022784e-15 8.7221361729e-16 8.3178158875e-16 3.1213518446e-15 6.5868359795e-15 
Continuous%20global%20L2-projection%20|p^*-p^h|_L2 1 16 double
3.0222737893e-16 3.9522753819e-16 5.5153632047e-16 1.7163963913e-15 6.1276831545e-16 4.8663955082e-16 7.299006926e-16 2.8102578479e-15 3.4424429387e-16 
6.1326478571e-16 6.8779754211e-16 4.1364718204e-15 5.3625320074e-16 1.3425506209e-15 3.5051182945e-15 5.3199607878e-15 
Continuous%20global%20L2-projection%20|p^*-p|_L2 1 16 double
5.6462451955e-16 3.8538306748e-16 2.1489287931e-15 5.5560951864e-15 1.001672442e-15 4.8133381269e-16 1.4871049585e-15 2.9857633144e-15 1.17839287e-15 
6.34605263e-16 5.8468362626e-16 8.1549417096e-16 1.2615742089e-15 2.0772751852e-15 7.3414506372e-15 2.688360713e-14 
Continuous%20global%20L2-projection%20|u^*-u^h|_H1 1 16 double
1.6385103344e-16 3.7960097903e-16 5.6538750221e-16 4.0629745055e-16 2.5577611499e-16 4.3311970837e-16 6.4435498736e-16 9.8356413611e-16 4.1163178043e-16 
6.698597284e-16 8.099748679e-16 1.2190368968e-15 3.618626542e-16 5.426533338e-16 1.273073332e-15 2.4627916739e-15 
Continuous%20global%20L2-projection%20|u^*-u|_H1 1 16 double
1.7025139853e-16 2.4167588968e-16 3.2564162483e-16 6.4564614784e-16 2.144862924e-16 3.3497443261e-16 5.5401468382e-16 1.2658237472e-15 2.6500811389e-16 
2.7841566741e-16 6.3786882267e-16 1.5686398149e-15 4.5938590771e-16 6.5754198979e-16 2.0276135322e-15 5.5302407097e-15 
area 1 16 double
0.5 0.5 0.5 0.5 0.5 0.5 0.5 0.5 0.5 
0.5 0.5 0.5 0.5 0.5 0.5 0.5 
int%20p 1 16 double
0.6123724357 0.6123724357 0.6123724357 0.6123724357 0.6123724357 0.6123724357 0.6123724357 0.6123724357 0.6123724357 
0.6123724357 0.6123724357 0.6123724357 0.6123724357 0.6123724357 0.6123724357 0.6123724357 
|div%20u^h|_L2 1 16 double
1.4790118276e-16 4.7732576938e-16 8.9106493501e-16 8.5083570725e-16 3.0725210325e-16 5.3880107244e-16 1.3387907822e-15 2.4419454501e-15 8.4718379461e-16 
1.253223729e-15 1.4458576087e-15 2.9451604364e-15 5.9827095528e-16 9.0271361431e-16 3.6847958574e-15 7.587516819e-15 
|div%20u|_L2| 1 16 double
0 0 0 0 0 0 0 0 0 
0 0 0 0 0 0 0 
|e_u|_H1%20+%20|e_p|_L2 1 16 double
4.9284620502e-16 3.388155756e-16 2.5320466018e-15 4.7936207321e-15 6.6457492805e-16 7.6751645327e-16 1.7612459634e-15 4.4755757208e-15 1.1222120098e-15 
1.131966183e-15 8.1577666623e-16 4.8736724149e-15 1.1991916245e-15 1.3685076114e-15 8.4508990521e-15 2.8409481528e-14 
|e|_H1,%20e=p-p^h 1 16 double
0 0 0 0 0 0 0 0 0 
0 0 0 0 0 0 0 
|e|_H1,%20e=u-u^h 1 16 double
1.0205997402e-16 2.7745484678e-16 6.7035795657e-16 5.6663535887e-16 2.5471820216e-16 3.4005237318e-16 7.5792112945e-16 1.4872212032e-15 4.8634768111e-16 
7.8919076273e-16 7.3633824406e-16 1.794045274e-15 4.1613318705e-16 7.5560671303e-16 2.0967407671e-15 6.2948189199e-15 
|e|_L2,%20e=p-p^h 1 16 double
4.8216298438e-16 1.9446028455e-16 2.4416961735e-15 4.760013035e-15 6.1382283476e-16 6.8807404365e-16 1.5898248033e-15 4.2212499482e-15 1.0113484702e-15 
8.1149576678e-16 3.5113752221e-16 4.531454994e-15 1.124674941e-15 1.1409958711e-15 8.1866582282e-15 2.7703319213e-14 
|e|_L2,%20e=u-u^h 1 16 double
2.5457938516e-17 4.0915527918e-17 1.5025235481e-16 1.355669649e-16 6.4224984001e-17 6.2445285767e-17 2.2208743347e-16 4.491256152e-16 1.5444608586e-16 
2.2597189677e-16 3.8181279226e-16 3.2084968765e-16 1.1295388442e-16 1.7478151414e-16 4.8663955082e-16 1.6291796393e-15 
|p^h|_H1 1 16 double
2.4894635102e-15 1.6183745948e-15 9.0122149345e-15 3.650963207e-15 4.5866082873e-15 2.9015235593e-15 8.0185303395e-15 2.9795513107e-14 5.4836679497e-15 
6.1896005391e-15 2.3919677841e-15 3.5187614999e-14 6.5254828085e-15 7.6001892133e-15 3.7211140664e-14 1.7786211102e-13 
|p^h|_L2 1 16 double
0.75 0.75 0.75 0.75 0.75 0.75 0.75 0.75 0.75 
0.75 0.75 0.75 0.75 0.75 0.75 0.75 
|p|_H1 1 16 double
0 0 0 0 0 0 0 0 0 
0 0 0 0 0 0 0 
|p|_L2 1 16 double
0.75 0.75 0.75 0.75 0.75 0.75 0.75 0.75 0.75 
0.75 0.75 0.75 0.75 0.75 0.75 0.75 
|u^h|_H1 1 16 double
0.35355339059 0.35355339059 0.35355339059 0.35355339059 0.35355339059 0.35355339059 0.35355339059 0.35355339059 0.35355339059 
0.35355339059 0.35355339059 0.35355339059 0.35355339059 0.35355339059 0.35355339059 0.35355339059 
|u^h|_L2 1 16 double
0.20412414523 0.40824829046 0.64549722437 0.889756521 0.40824829046 0.54006172487 0.73598007219 0.95742710776 0.64549722437 
0.73598007219 0.889756521 1.0801234497 0.889756521 0.95742710776 1.0801234497 1.2416387021 
|u|_H1 1 16 double
0.35355339059 0.35355339059 0.35355339059 0.35355339059 0.35355339059 0.35355339059 0.35355339059 0.35355339059 0.35355339059 
0.35355339059 0.35355339059 0.35355339059 0.35355339059 0.35355339059 0.35355339059 0.35355339059 
|u|_L2| 1 16 double
0.20412414523 0.40824829046 0.64549722437 0.889756521 0.40824829046 0.54006172487 0.73598007219 0.95742710776 0.64549722437 
0.73598007219 0.889756521 1.0801234497 0.889756521 0.95742710776 1.0801234497 1.2416387021 
POINT_DATA 25
FIELD FieldData 14
Continuous%20global%20L2-projection%20p-rec 1 25 double
1.5 1.5 1.5 1.5 1.5 1.5 1.5 1.5 1.5 
1.5 1.5 1.5 1.5 1.5 1.5 1.5 1.5 1.5 
1.5 1.5 1.5 1.5 1.5 1.5 1.5 
Continuous%20global%20L2-projection%20u_x,x 1 25 double
1 1 1 1 1 1 1 1 1 
1 1 1 1 1 1 1 1 1 
1 1 1 1 1 1 1 
Continuous%20global%20L2-projection%20u_x,y 1 25 double
-4.4564679901e-16 1.3021673607e-16 -1.4385806539e-16 -2.890567933e-16 1.3619819744e-15 -3.4618635728e-16 7.5525999966e-17 2.352829733e-16 -1.8094951918e-15 
6.9258461274e-15 -1.1884729761e-15 5.8688935148e-17 -9.3392781817e-17 9.9729063665e-16 -2.4364287142e-15 -2.2206798588e-15 5.3696689841e-16 1.4488275323e-15 
-5.5750597161e-15 1.9807991704e-14 2.2942899426e-15 3.9729845427e-18 5.2789860268e-16 1.3372058119e-16 -9.7683319265e-16 
Continuous%20global%20L2-projection%20u_y,x 1 25 double
-3.3009171051e-16 -6.0031921113e-16 1.1055968745e-15 2.285677493e-15 6.9738592538e-16 1.9233129389e-16 1.1429598724e-16 -2.8487014309e-16 -1.9299324093e-15 
-1.9623648558e-16 -1.7432118784e-16 -1.9690712044e-16 -1.2976039906e-15 8.0033929571e-16 -7.0720518329e-16 -4.1634600503e-16 -1.7410512779e-16 2.6347832762e-15 
-5.3496104358e-15 -1.3417220564e-15 1.5949666506e-15 1.0030183705e-15 -8.2191853456e-15 2.517204248e-14 4.3114785607e-15 
Continuous%20global%20L2-projection%20u_y,y 1 25 double
-1 -1 -1 -1 -1 -1 -1 -1 -1 
-1 -1 -1 -1 -1 -1 -1 -1 -1 
-1 -1 -1 -1 -1 -1 -1 
p 1 25 double
1.5 1.5 1.5 1.5 1.5 1.5 1.5 1.5 1.5 
1.5 1.5 1.5 1.5 1.5 1.5 1.5 1.5 1.5 
1.5 1.5 1.5 1.5 1.5 1.5 1.5 
p-rec 1 25 double
1.5 1.5 1.5 1.5 1.5 1.5 1.5 1.5 1.5 
1.5 1.5 1.5 1.5 1.5 1.5 1.5 1.5 1.5 
1.5 1.5 1.5 1.5 1.5 1.5 1.5 
u 3 25 double
0 0 0 0 -0.5 0 0 -1 0 
0 -1.5 0 0 -2 0 0.5 0 0 
0.5 -0.5 0 0.5 -1 0 0.5 -1.5 0 
0.5 -2 0 1 0 0 1 -0.5 0 
1 -1 0 1 -1.5 0 1 -2 0 
1.5 0 0 1.5 -0.5 0 1.5 -1 0 
1.5 -1.5 0 1.5 -2 0 2 0 0 
2 -0.5 0 2 -1 0 2 -1.5 0 
2 -2 0 
u_x 1 25 double
0 0 0 0 0 0.5 0.5 0.5 0.5 
0.5 1 1 1 1 1 1.5 1.5 1.5 
1.5 1.5 2 2 2 2 2 
u_y 1 25 double
0 -0.5 -1 -1.5 -2 0 -0.5 -1 -1.5 
-2 0 -0.5 -1 -1.5 -2 0 -0.5 -1 
-1.5 -2 0 -0.5 -1 -1.5 -2 
u_x,x 1 25 double
1 1 1 1 1 1 1 1 1 
1 1 1 1 1 1 1 1 1 
1 1 1 1 1 1 1 
u_x,y 1 25 double
0 0 0 0 0 4.4408920985e-16 1.1102230246e-15 1.3322676296e-15 -3.9968028887e-15 
3.9968028887e-15 -8.881784197e-16 -1.3322676296e-15 -1.7763568394e-15 8.881784197e-16 -8.881784197e-16 -1.7763568394e-15 -1.7763568394e-15 -1.7763568394e-15 
-1.6875389974e-14 1.4210854715e-14 0 0 0 0 0 
u_y,x 1 25 double
0 -4.4408920985e-16 -1.7763568394e-15 -8.881784197e-16 0 0 0 -1.3322676296e-15 -3.5527136788e-15 
0 0 8.881784197e-16 -5.3290705182e-15 4.4408920985e-15 0 0 4.4408920985e-16 4.4408920985e-15 
-1.6875389974e-14 0 0 0 -8.881784197e-16 1.6875389974e-14 0 
u_y,y 1 25 double
-1 -1 -1 -1 -1 -1 -1 -1 -1 
-1 -1 -1 -1 -1 -1 -1 -1 -1 
-1 -1 -1 -1 -1 -1 -1 
