<?xml version="1.0"?>
<VTKFile type="UnstructuredGrid" version="0.1" byte_order="LittleEndian" header_type="UInt32" compressor="vtkZLibDataCompressor">
  <UnstructuredGrid>
    <Piece NumberOfPoints="405" NumberOfCells="320">
      <PointData>
        <DataArray type="Float64" Name="p" format="ascii" RangeMin="-2.5921124848" RangeMax="2.5603112197">
          0.64589538419 0.56069622284 0.41960963189 0.14277031976 -0.0076550504895 0.14571751251
          0.42128158393 0.56503028301 0.60578416528 0.0054436777333 0.0083873230113 0.0033573382672
          0.0013315985377 -0.0002130073281 0.0033840778753 0.0070850641354 0.012905654488 0.01112108616
          0.013229205031 0.011135766737 0.0081825307759 0.0023762655244 0.00072251196752 0.0035286645477
          0.0099644554147 0.014030888652 0.013988184779 -0.006303634175 -0.0061351105057 -0.0049863449208
          -0.0029997976675 -0.0024234160197 -0.0021228823215 -0.0034467994579 -0.0038818594158 -0.0044972145668
          0.0027090948275 0.0024210422882 0.0018233486775 0.00099067941754 0.0011519041016 0.0015253142356
          0.0026770205391 0.0037634531309 0.0033767611148 -0.0018392010774 -0.0018696180414 -0.0015381058425
          -0.001180792218 -0.0011211392754 -0.00081572895235 -0.00091219693662 -0.000934591031 -0.0012189586981
          0.00068007949682 0.00051739229584 0.00043871027014 0.00039160798324 0.00051836259044 0.00059308417392
          0.00077091080624 0.001030519113 0.0009657377462 -0.00044562945401 -0.00044610104753 -0.00039058390868
          -0.00036162806805 -0.00035053344136 -0.00026485378613 -0.00022923068789 -0.00020095656939 -0.00029825333038
          -0.00029717854293 -0.00018027112115 -0.00022033719354 -0.00025622935416 -0.00025954852605 -0.00024820461337
          -0.00020382003854 -0.00017720394149 -0.00022014028478 -1.1580356018 -0.38835403118 -0.43136498549
          -0.90550594523 -2.5921124848 -0.89896477904 -0.42231511629 -0.37598947785 -1.1433544797
          0.0049520045751 -0.15135849882 -0.19978552316 -0.16495899924 0.036740163326 -0.1611305718
          -0.19195998064 -0.14077539847 0.017320166801 -0.063544208115 0.002399793639 -0.0071393697094
          -0.061774883442 -0.17163587996 -0.058406355169 -0.0010948779191 0.010210670149 -0.053344154907
          0.00085792320573 -0.062342649054 -0.07522163136 -0.028957294332 0.048995780925 -0.025735216042
          -0.068444399373 -0.052543842003 0.012983429923 0.024369387879 0.051420732415 0.03501406241
          -0.039659430558 -0.1234647562 -0.036526996837 0.04128877592 0.058414879996 0.03356883504
          -0.059245772052 -0.062215495296 -0.046814863338 0.0069386135565 0.055926144068 0.0099914692797
          -0.040626646437 -0.053361855803 -0.047390304094 0.092075162661 0.046262493261 0.0098050948609
          -0.037700015142 -0.059514968638 -0.033790289044 0.015304046716 0.055178480526 0.088925425358
          -0.092102578748 -0.075578861089 -0.029566435141 0.0050445978783 0.02431702257 0.008915675091
          -0.026068803853 -0.065070952563 -0.099594758881 0.64589538419 0.56069622284 0.41960963189
          0.14277031976 -0.0076550504895 0.14571751251 0.42128158393 0.56503028301 0.60578416528
          -1.1433544797 -0.28649923334 -0.3262275868 -0.29815572075 -0.22688500359 -0.12850505285
          -0.026608062337 0.019050772903 0.96752690602 0.017320166801 -0.064229223067 -0.011134127573
          0.044781478237 0.10113760036 0.15412144782 0.19871783 0.23645464476 0.14303424565
          -0.053344154907 0.013585360216 0.010664614502 0.02815695836 0.059333738212 0.091099684627
          0.11407668195 0.1241072772 0.20043856243 0.012983429923 -0.0088458086807 0.024698872318
          0.052880038046 0.080605890412 0.10919725609 0.13894878329 0.16388939104 0.13096014758
          0.03356883504 0.043974977342 0.032957668245 0.045149796612 0.070088264718 0.09521013834
          0.10562603805 0.097309640659 0.12489178382 -0.047390304094 0.0045526488741 0.037682690946
          0.060466141599 0.078802437453 0.10197791515 0.12801791026 0.16631254681 0.19940280297
          0.088925425358 0.023949180137 0.022885766261 0.049863357375 0.072233282891 0.1019512895
          0.13016272215 0.11998134562 0.084704332252 -0.099594758881 0.01547449384 0.026673451262
          0.058256457831 0.07247803066 0.11326963118 0.1325970965 0.15869169976 0.24423858941
          0.60578416528 0.19725021277 0.11143845859 0.082989118865 0.071224662254 0.071358912061
          0.046161074528 -0.028515534667 -0.23262163826 0.96752690602 0.2150197561 0.29974730259
          0.82895560495 2.5603112197 0.85527880895 0.35637900079 0.24852978648 0.9481702581
          0.14303424565 0.28847568993 0.33434017646 0.30220465097 0.10291730397 0.31191373574
          0.35871217381 0.3176852725 0.15451203874 0.20043856243 0.14957438569 0.15393407904
          0.19937656601 0.30551292874 0.18246542345 0.10187800513 0.074684529022 0.1528572713
          0.13096014758 0.18066255813 0.20530328672 0.16388698905 0.084236312992 0.15884840107
          0.21297356491 0.21248807053 0.12574192202 0.12489178382 0.10414837397 0.10825032508
          0.18209443247 0.26172879587 0.16498162768 0.071741301263 0.028614634174 0.059429688208
          0.19940280297 0.19951170068 0.19148526954 0.13294047347 0.081946689422 0.1224602548
          0.1629979254 0.18035710549 0.16082978692 0.084704332252 0.10717114686 0.13059586273
          0.19213295121 0.20967809154 0.15845452755 0.096169245863 0.025033206902 -0.045816831308
          0.24423858941 0.20887910122 0.16535136447 0.14337618166 0.13347743698 0.12274824481
          0.14881811255 0.17507759335 0.16820014611 -0.23262163826 -0.18693813471 -0.20362740814
          0.046697941056 0.19427071001 -0.10477196928 -0.50310856759 -0.9053117827 -0.63146163698
          0.9481702581 0.0068386342382 -0.045310878412 -0.15373476112 -0.25159124362 -0.32281816481
          -0.34839654313 -0.30512913748 -1.1580356018 0.15451203874 0.24038203315 0.18960346348
          0.1375105257 0.082577184148 0.026770952944 -0.027737771922 -0.078792559231 0.0049520045751
          0.1528572713 0.089924846039 0.098220846231 0.079863526885 0.046752794438 0.015558657822
          -0.00079443062155 0.0032004141038 -0.063544208115 0.12574192202 0.13827516445 0.10230919441
          0.078683213782 0.056559988487 0.0332241034 0.0062372420821 -0.023939608052 0.00085792320573
          0.059429688208 0.068561267743 0.08376474284 0.070125688524 0.048828699666 0.02812992311
          0.018227427063 0.034580735651 0.024369387879 0.16082978692 0.091799983334 0.077515310395
          0.061766622739 0.052207941354 0.037136775006 0.016727406093 -0.0096394085281 -0.059245772052
          -0.045816831308 0.081244487633 0.0786830622 0.063615026276 0.048510584901 0.027275316257
          0.0074360319149 0.015426407081 0.092075162661 0.16820014611 0.061403823754 0.07685903207
          0.052294642916 0.053730964229 0.023563597585 0.013098863876 -0.0024799726518 -0.092102578748
          -0.63146163698 -0.12277186363 -0.0035639355255 0.051933706932 0.073905671441 0.082803697797
          0.12866570425 0.20911714213 0.64589538419
        </DataArray>
        <DataArray type="Float64" Name="u" NumberOfComponents="3" format="ascii" RangeMin="0.27475740334" RangeMax="1.3780904201">
          0.79686054242 0 0 0.79693583022 -0.00076240664652 0
          0.79728281661 -0.0016676719117 0 0.79794842311 -0.0025838874777 0
          0.79907151129 -0.003628478206 0 0.80074413741 -0.0041137254248 0
          0.80243837267 -0.0034509063952 0 0.80366408852 -0.0019947475544 0
          0.80413725586 0 0 0.79788849537 0 0
          0.79799574575 -0.00069408579443 0 0.79826918087 -0.0013614814467 0
          0.79878199589 -0.0019966756331 0 0.79960555157 -0.0024458478029 0
          0.80067047694 -0.0025210351615 0 0.80175502321 -0.0020931767619 0
          0.80254743517 -0.0011757408514 0 0.80281140873 0 0
          0.79850034921 0 0 0.79857075043 -0.00050226230736 0
          0.79881655865 -0.00097767523794 0 0.79923487568 -0.0013812000628 0
          0.79981890067 -0.0016420627978 0 0.80051527843 -0.0016523517318 0
          0.80118132427 -0.0013433565962 0 0.80166052108 -0.0007528285992 0
          0.80184049597 0 0 0.79893867624 0 0
          0.7990059686 -0.00036618056542 0 0.79919595658 -0.00070106434279 0
          0.79950800694 -0.00096096871882 0 0.79992169193 -0.0010970199557 0
          0.80038149549 -0.0010658797441 0 0.80080920856 -0.00085008876604 0
          0.80111420363 -0.00047321003105 0 0.80121838109 0 0
          0.79924734805 0 0 0.7992961004 -0.00025021509675 0
          0.79944187734 -0.00047189375927 0 0.79967173915 -0.00063979794851 0
          0.79996198207 -0.00072283203241 0 0.80027504363 -0.00069568474307 0
          0.80055633837 -0.00055017972543 0 0.80075272892 -0.0003028298968 0
          0.80082189397 0 0 0.7994594251 0 0
          0.79949649637 -0.00016552699134 0 0.79960571693 -0.00031159832385 0
          0.79977509829 -0.00041597670039 0 0.79998403439 -0.00046185421722 0
          0.80020254653 -0.00043739355346 0 0.80039531423 -0.00034159011194 0
          0.80052855323 -0.00018790365602 0 0.80057514271 0 0
          0.7995915065 0 0 0.79962095237 -9.9141449737e-05 0
          0.79970559746 -0.0001851041487 0 0.79983483297 -0.00024664591298 0
          0.79999164131 -0.0002729364182 0 0.80015325711 -0.00025763750824 0
          0.80029381417 -0.00020085833085 0 0.80038979356 -0.00010973710446 0
          0.80042265187 0 0 0.79966622335 0 0
          0.79969024871 -4.658584893e-05 0 0.79976080329 -8.7045698323e-05 0
          0.79986771067 -0.0001151954999 0 0.79999603783 -0.00012665525084 0
          0.80012681032 -0.00011882676777 0 0.80023944123 -9.2082940933e-05 0
          0.80031587933 -5.0338021905e-05 0 0.80034250927 0 0
          0.79968949091 0 0 0.79971210147 -4.3441916681e-07 0
          0.79977802778 -3.802960138e-07 0 0.79987763803 -3.7002644597e-07 0
          0.79999684755 -3.6077229796e-07 0 0.80011794276 -2.9395630948e-07 0
          0.80022194846 -1.1783416662e-07 0 0.80029234757 1.5996607378e-07 0
          0.80031674221 0 0 0.84227883685 0.46304337328 0
          0.6622405271 0.44774485444 0 0.48146253483 0.35580127258 0
          0.33620034124 0.1786456624 0 0.27339283215 -0.027349406222 0
          0.34558804692 -0.2315515292 0 0.49824031181 -0.40392909212 0
          0.68336383954 -0.48958382151 0 0.86468855958 -0.49850368593 0
          0.78931499989 0.010641403184 0 0.78490413923 0.015216980961 0
          0.7741112114 0.017083145699 0 0.76046989683 0.0092598232386 0
          0.75508272359 -0.013645998354 0 0.76310644836 -0.036232311947 0
          0.77884052362 -0.043410686143 0 0.79114847669 -0.041072090051 0
          0.79676965822 -0.036392213787 0 0.80008295077 0.0052946816168 0
          0.79484820625 0.0058336853136 0 0.78873607487 0.0034787518495 0
          0.7837156639 -0.0027912532927 0 0.78257860609 -0.010934989905 0
          0.78662508396 -0.018921144074 0 0.79434559121 -0.02480473824 0
          0.80286215651 -0.026687417789 0 0.81018406956 -0.025689842401 0
          0.79426126891 -0.0025747147363 0 0.7942673186 -0.0018844123416 0
          0.79289318576 -0.0019237516803 0 0.79114043899 -0.0042033045391 0
          0.79114153665 -0.0087758801236 0 0.79426515742 -0.013111743701 0
          0.79893966008 -0.014760887112 0 0.80294086372 -0.013946828925 0
          0.80527714142 -0.012327473032 0 0.79689837995 -0.001532856782 0
          0.79629228564 -0.0019834742855 0 0.79566775414 -0.0028222089486 0
          0.79494548657 -0.0044395338632 0 0.79541699899 -0.0072501953299 0
          0.79816489671 -0.0097528074665 0 0.80190644762 -0.010512884169 0
          0.8052483517 -0.010089306443 0 0.80821730617 -0.0089965429291 0
          0.79540606416 -0.0018910516998 0 0.79580224816 -0.0020117458256 0
          0.79566773202 -0.0025910597092 0 0.79586508382 -0.0040790204039 0
          0.79700930913 -0.0060176911596 0 0.79906671007 -0.0075647469556 0
          0.80183262194 -0.007934207879 0 0.80452120957 -0.0068309712486 0
          0.80620916563 -0.0048724808069 0 0.79673364739 -0.00083621214173 0
          0.79689303367 -0.0017723335814 0 0.79713554426 -0.0025444301672 0
          0.79726084585 -0.0036229063737 0 0.79807602533 -0.005053295481 0
          0.80036424846 -0.0060195990143 0 0.80305182805 -0.0057846918492 0
          0.80508967886 -0.0045739462647 0 0.80662378974 -0.0030362686386 0
          0.79630689492 -0.0004839477428 0 0.79673592413 -0.0011964180747 0
          0.79688372328 -0.0020153061596 0 0.79750719813 -0.0030768733055 0
          0.79868746264 -0.004271508757 0 0.80046705017 -0.0049368179763 0
          0.80245770472 -0.0045340316488 0 0.80422385242 -0.003121613439 0
          0.80503431243 -0.0011464615134 0 0.79686054242 0 0
          0.79693583022 -0.00076240664652 0 0.79728281661 -0.0016676719117 0
          0.79794842311 -0.0025838874777 0 0.79907151129 -0.003628478206 0
          0.80074413741 -0.0041137254248 0 0.80243837267 -0.0034509063952 0
          0.80366408852 -0.0019947475544 0 0.80413725586 0 0
          0.86468855958 -0.49850368593 0 1.0367355304 -0.4956227207 0
          1.2042997237 -0.40190688765 0 1.3327650486 -0.22969957665 0
          1.3780816457 -0.0049176986857 0 1.3238178656 0.21753482791 0
          1.1886527135 0.38333609561 0 1.0178856023 0.46833922619 0
          0.84496128781 0.46297502472 0 0.79676965822 -0.036392213787 0
          0.80340112328 -0.039196409085 0 0.81729002282 -0.041674422088 0
          0.8338219119 -0.033927288849 0 0.84152563252 -0.015474306819 0
          0.83340687566 0.0025035152454 0 0.81693412252 0.0091961144675 0
          0.8035223053 0.0056802215287 0 0.79755322161 0.002069405349 0
          0.81018406956 -0.025689842401 0 0.81671221594 -0.027681808158 0
          0.82372082565 -0.026232669845 0 0.83004577842 -0.021805215447 0
          0.83324745565 -0.014669882309 0 0.83163803093 -0.0079652608005 0
          0.82691920937 -0.0046734597782 0 0.8213873932 -0.004772688906 0
          0.81592616222 -0.0084769671645 0 0.80527714142 -0.012327473032 0
          0.80811138288 -0.01420836535 0 0.81277514119 -0.015857556489 0
          0.81806714681 -0.015357144929 0 0.82140671651 -0.013048761765 0
          0.82160243356 -0.011305850575 0 0.8197361036 -0.012376809733 0
          0.81818384817 -0.016445448149 0 0.81808386295 -0.021446141942 0
          0.80821730617 -0.0089965429291 0 0.81097972532 -0.010171021282 0
          0.81442751567 -0.011024169869 0 0.81845175635 -0.011284242853 0
          0.8220244385 -0.010811775846 0 0.82415001481 -0.011071143869 0
          0.82579922824 -0.01347189556 0 0.82794783155 -0.017816942603 0
          0.83020513598 -0.023379170717 0 0.80620916563 -0.0048724808069 0
          0.80878441373 -0.0062875117738 0 0.81253670202 -0.0074791051477 0
          0.81698821055 -0.0080377302283 0 0.82125302632 -0.0083025811021 0
          0.82496366963 -0.0093415426337 0 0.82884972748 -0.012320385354 0
          0.83367719776 -0.01769202831 0 0.84009990673 -0.025616836337 0
          0.80662378974 -0.0030362686386 0 0.80907931281 -0.0036149103186 0
          0.81248569117 -0.0044203184024 0 0.81695429312 -0.0050477163795 0
          0.82193204092 -0.0055830801643 0 0.82718677808 -0.0067732196131 0
          0.8338504276 -0.0097331835627 0 0.84314504581 -0.015065526597 0
          0.8554453215 -0.022610275239 0 0.80503431243 -0.0011464615134 0
          0.80783065184 -0.0016345038268 0 0.81151647098 -0.0021575227776 0
          0.81643094446 -0.0024166243225 0 0.82207909322 -0.0028131499441 0
          0.82870717122 -0.0035027920691 0 0.8379109808 -0.0055028930792 0
          0.85163865321 -0.0090101201535 0 0.87357303346 -0.018042643805 0
          0.80413725586 0 0 0.8063473414 0 0
          0.81065735121 0 0 0.81577733136 0 0
          0.82212924272 0 0 0.8299188384 0 0
          0.84116089799 0 0 0.86080892956 0 0
          0.9 0 0 0.84496128781 0.46297502472 0
          0.66549187455 0.44629468428 0 0.48476334377 0.35313337655 0
          0.33860377483 0.17504359343 0 0.274838559 -0.031626888285 0
          0.346361235 -0.23629650399 0 0.49797991181 -0.4090059719 0
          0.68255985722 -0.49448002234 0 0.86391742243 -0.50195817907 0
          0.79755322161 0.002069405349 0 0.79144283149 0.0059132799079 0
          0.77866605695 0.0072198093483 0 0.76293069021 -0.0009161154351 0
          0.7552986921 -0.023767782567 0 0.76092140991 -0.045907446754 0
          0.7742332947 -0.052424260236 0 0.78426671057 -0.049469811116 0
          0.78806018195 -0.044261793591 0 0.81592616222 -0.0084769671645 0
          0.80755241099 -0.0093759923832 0 0.79776908042 -0.012961325088 0
          0.78846589026 -0.020023531415 0 0.78266313082 -0.028488602869 0
          0.78204064402 -0.03631530817 0 0.78551001573 -0.04158162937 0
          0.79041174025 -0.042322320017 0 0.7945837485 -0.039852744903 0
          0.81808386295 -0.021446141942 0 0.81365186592 -0.023330695102 0
          0.8065403912 -0.025611970663 0 0.79828147137 -0.029462622035 0
          0.7913173789 -0.034602091516 0 0.78745541858 -0.038448544465 0
          0.78553229819 -0.03856064595 0 0.78364645405 -0.035526768605 0
          0.7814549569 -0.031401473235 0 0.83020513598 -0.023379170717 0
          0.8234313998 -0.028174726658 0 0.81511474434 -0.032527361825 0
          0.80514876441 -0.036504515216 0 0.79565396958 -0.04023856389 0
          0.78837610606 -0.042028363305 0 0.78273844279 -0.040601079152 0
          0.77826343849 -0.036775988085 0 0.77491413041 -0.031295384652 0
          0.84009990673 -0.025616836337 0 0.83238831523 -0.03398221931 0
          0.82161523877 -0.041039101579 0 0.8095189965 -0.04666599062 0
          0.79737886763 -0.05007563049 0 0.78602566105 -0.050570009434 0
          0.77620759979 -0.047046161546 0 0.76789731885 -0.039450240887 0
          0.76120699772 -0.029152595312 0 0.8554453215 -0.022610275239 0
          0.84481028095 -0.034786145737 0 0.83114266095 -0.043591716798 0
          0.81499770602 -0.049815555406 0 0.79857973921 -0.053111201078 0
          0.78342482959 -0.05269603694 0 0.76931748541 -0.047584740038 0
          0.75693917782 -0.038378464333 0 0.74732058208 -0.025363422747 0
          0.87357303346 -0.018042643805 0 0.85882485193 -0.045597468515 0
          0.83972034291 -0.062067493075 0 0.8199120436 -0.072024627059 0
          0.79946111667 -0.076738601856 0 0.77911359187 -0.075316151548 0
          0.75971226477 -0.066455470212 0 0.74138287101 -0.048934349424 0
          0.72641796967 -0.019176543648 0 0.9 0 0
          0.875 0 0 0.85 0 0
          0.825 0 0 0.8 0 0
          0.775 0 0 0.75 0 0
          0.725 0 0 0.7 0 0
          0.86391742243 -0.50195817907 0 1.0354305672 -0.49865252936 0
          1.2016530146 -0.40478187044 0 1.3289963252 -0.2325345787 0
          1.3736772108 -0.0079095466882 0 1.3194616481 0.21443609424 0
          1.1847777922 0.38080422785 0 1.0143527229 0.46722473381 0
          0.84227883685 0.46304337328 0 0.78806018195 -0.044261793591 0
          0.79406391694 -0.045335772515 0 0.80753809047 -0.045891502112 0
          0.82390649086 -0.036081933529 0 0.83171509078 -0.015408962249 0
          0.82389275769 0.0049069905781 0 0.80782025001 0.013897496716 0
          0.79486844545 0.01246097969 0 0.78931499989 0.010641403184 0
          0.7945837485 -0.039852744903 0 0.80066393803 -0.038693629073 0
          0.80745858582 -0.033775795214 0 0.81365967604 -0.025695868538 0
          0.81680328789 -0.014849792657 0 0.81518742233 -0.0044294097833 0
          0.81050096129 0.0025133782677 0 0.80510723272 0.0058594742487 0
          0.80008295077 0.0052946816168 0 0.7814549569 -0.031401473235 0
          0.78486561685 -0.028304905125 0 0.79006073332 -0.02517107338 0
          0.79581205977 -0.020002140004 0 0.79933591864 -0.013074638905 0
          0.79935906824 -0.0067220320922 0 0.79704843686 -0.0031550382195 0
          0.7949605295 -0.002478229649 0 0.79426126891 -0.0025747147363 0
          0.77491413041 -0.031295384652 0 0.7800372967 -0.026354320125 0
          0.78573416643 -0.021373839283 0 0.79121177035 -0.016378491837 0
          0.79528607824 -0.010938286206 0 0.79692883883 -0.0062416434472 0
          0.79713203947 -0.00342010034 0 0.79703931983 -0.0020120131161 0
          0.79689837995 -0.001532856782 0 0.76120699772 -0.029152595312 0
          0.76986580444 -0.022393448088 0 0.77819371687 -0.017339305003 0
          0.78568550348 -0.012754075885 0 0.79090815812 -0.0083448389388 0
          0.79371037609 -0.004723330473 0 0.79462821522 -0.002630349694 0
          0.79493656759 -0.001875621373 0 0.79540606416 -0.0018910516998 0
          0.74732058208 -0.025363422747 0 0.76145609841 -0.017833884066 0
          0.77317097712 -0.012510496259 0 0.78253014663 -0.0088346029997 0
          0.78908572896 -0.0056616926632 0 0.79285180682 -0.0031505054335 0
          0.79474161424 -0.0018666110889 0 0.79590847924 -0.0012290350932 0
          0.79673364739 -0.00083621214173 0 0.72641796967 -0.019176543648 0
          0.75139165877 -0.010355468724 0 0.7677787198 -0.0070348678966 0
          0.77992405626 -0.0045117765328 0 0.78778116432 -0.0028353199218 0
          0.79230975845 -0.0014284874918 0 0.79449931168 -0.00073247078943 0
          0.7957514059 -0.00046289599422 0 0.79630689492 -0.0004839477428 0
          0.7 0 0 0.74010864721 0 0
          0.76403361931 0 0 0.77788016035 0 0
          0.78759635013 0 0 0.79219974676 0 0
          0.79483237955 0 0 0.79556267016 0 0
          0.79686054242 0 0
        </DataArray>
        <DataArray type="Float64" Name="u_x" format="ascii" RangeMin="0.27339283215" RangeMax="1.3780816457">
          0.79686054242 0.79693583022 0.79728281661 0.79794842311 0.79907151129 0.80074413741
          0.80243837267 0.80366408852 0.80413725586 0.79788849537 0.79799574575 0.79826918087
          0.79878199589 0.79960555157 0.80067047694 0.80175502321 0.80254743517 0.80281140873
          0.79850034921 0.79857075043 0.79881655865 0.79923487568 0.79981890067 0.80051527843
          0.80118132427 0.80166052108 0.80184049597 0.79893867624 0.7990059686 0.79919595658
          0.79950800694 0.79992169193 0.80038149549 0.80080920856 0.80111420363 0.80121838109
          0.79924734805 0.7992961004 0.79944187734 0.79967173915 0.79996198207 0.80027504363
          0.80055633837 0.80075272892 0.80082189397 0.7994594251 0.79949649637 0.79960571693
          0.79977509829 0.79998403439 0.80020254653 0.80039531423 0.80052855323 0.80057514271
          0.7995915065 0.79962095237 0.79970559746 0.79983483297 0.79999164131 0.80015325711
          0.80029381417 0.80038979356 0.80042265187 0.79966622335 0.79969024871 0.79976080329
          0.79986771067 0.79999603783 0.80012681032 0.80023944123 0.80031587933 0.80034250927
          0.79968949091 0.79971210147 0.79977802778 0.79987763803 0.79999684755 0.80011794276
          0.80022194846 0.80029234757 0.80031674221 0.84227883685 0.6622405271 0.48146253483
          0.33620034124 0.27339283215 0.34558804692 0.49824031181 0.68336383954 0.86468855958
          0.78931499989 0.78490413923 0.7741112114 0.76046989683 0.75508272359 0.76310644836
          0.77884052362 0.79114847669 0.79676965822 0.80008295077 0.79484820625 0.78873607487
          0.7837156639 0.78257860609 0.78662508396 0.79434559121 0.80286215651 0.81018406956
          0.79426126891 0.7942673186 0.79289318576 0.79114043899 0.79114153665 0.79426515742
          0.79893966008 0.80294086372 0.80527714142 0.79689837995 0.79629228564 0.79566775414
          0.79494548657 0.79541699899 0.79816489671 0.80190644762 0.8052483517 0.80821730617
          0.79540606416 0.79580224816 0.79566773202 0.79586508382 0.79700930913 0.79906671007
          0.80183262194 0.80452120957 0.80620916563 0.79673364739 0.79689303367 0.79713554426
          0.79726084585 0.79807602533 0.80036424846 0.80305182805 0.80508967886 0.80662378974
          0.79630689492 0.79673592413 0.79688372328 0.79750719813 0.79868746264 0.80046705017
          0.80245770472 0.80422385242 0.80503431243 0.79686054242 0.79693583022 0.79728281661
          0.79794842311 0.79907151129 0.80074413741 0.80243837267 0.80366408852 0.80413725586
          0.86468855958 1.0367355304 1.2042997237 1.3327650486 1.3780816457 1.3238178656
          1.1886527135 1.0178856023 0.84496128781 0.79676965822 0.80340112328 0.81729002282
          0.8338219119 0.84152563252 0.83340687566 0.81693412252 0.8035223053 0.79755322161
          0.81018406956 0.81671221594 0.82372082565 0.83004577842 0.83324745565 0.83163803093
          0.82691920937 0.8213873932 0.81592616222 0.80527714142 0.80811138288 0.81277514119
          0.81806714681 0.82140671651 0.82160243356 0.8197361036 0.81818384817 0.81808386295
          0.80821730617 0.81097972532 0.81442751567 0.81845175635 0.8220244385 0.82415001481
          0.82579922824 0.82794783155 0.83020513598 0.80620916563 0.80878441373 0.81253670202
          0.81698821055 0.82125302632 0.82496366963 0.82884972748 0.83367719776 0.84009990673
          0.80662378974 0.80907931281 0.81248569117 0.81695429312 0.82193204092 0.82718677808
          0.8338504276 0.84314504581 0.8554453215 0.80503431243 0.80783065184 0.81151647098
          0.81643094446 0.82207909322 0.82870717122 0.8379109808 0.85163865321 0.87357303346
          0.80413725586 0.8063473414 0.81065735121 0.81577733136 0.82212924272 0.8299188384
          0.84116089799 0.86080892956 0.9 0.84496128781 0.66549187455 0.48476334377
          0.33860377483 0.274838559 0.346361235 0.49797991181 0.68255985722 0.86391742243
          0.79755322161 0.79144283149 0.77866605695 0.76293069021 0.7552986921 0.76092140991
          0.7742332947 0.78426671057 0.78806018195 0.81592616222 0.80755241099 0.79776908042
          0.78846589026 0.78266313082 0.78204064402 0.78551001573 0.79041174025 0.7945837485
          0.81808386295 0.81365186592 0.8065403912 0.79828147137 0.7913173789 0.78745541858
          0.78553229819 0.78364645405 0.7814549569 0.83020513598 0.8234313998 0.81511474434
          0.80514876441 0.79565396958 0.78837610606 0.78273844279 0.77826343849 0.77491413041
          0.84009990673 0.83238831523 0.82161523877 0.8095189965 0.79737886763 0.78602566105
          0.77620759979 0.76789731885 0.76120699772 0.8554453215 0.84481028095 0.83114266095
          0.81499770602 0.79857973921 0.78342482959 0.76931748541 0.75693917782 0.74732058208
          0.87357303346 0.85882485193 0.83972034291 0.8199120436 0.79946111667 0.77911359187
          0.75971226477 0.74138287101 0.72641796967 0.9 0.875 0.85
          0.825 0.8 0.775 0.75 0.725 0.7
          0.86391742243 1.0354305672 1.2016530146 1.3289963252 1.3736772108 1.3194616481
          1.1847777922 1.0143527229 0.84227883685 0.78806018195 0.79406391694 0.80753809047
          0.82390649086 0.83171509078 0.82389275769 0.80782025001 0.79486844545 0.78931499989
          0.7945837485 0.80066393803 0.80745858582 0.81365967604 0.81680328789 0.81518742233
          0.81050096129 0.80510723272 0.80008295077 0.7814549569 0.78486561685 0.79006073332
          0.79581205977 0.79933591864 0.79935906824 0.79704843686 0.7949605295 0.79426126891
          0.77491413041 0.7800372967 0.78573416643 0.79121177035 0.79528607824 0.79692883883
          0.79713203947 0.79703931983 0.79689837995 0.76120699772 0.76986580444 0.77819371687
          0.78568550348 0.79090815812 0.79371037609 0.79462821522 0.79493656759 0.79540606416
          0.74732058208 0.76145609841 0.77317097712 0.78253014663 0.78908572896 0.79285180682
          0.79474161424 0.79590847924 0.79673364739 0.72641796967 0.75139165877 0.7677787198
          0.77992405626 0.78778116432 0.79230975845 0.79449931168 0.7957514059 0.79630689492
          0.7 0.74010864721 0.76403361931 0.77788016035 0.78759635013 0.79219974676
          0.79483237955 0.79556267016 0.79686054242
        </DataArray>
        <DataArray type="Float64" Name="u_y" format="ascii" RangeMin="-0.50195817907" RangeMax="0.46833922619">
          0 -0.00076240664652 -0.0016676719117 -0.0025838874777 -0.003628478206 -0.0041137254248
          -0.0034509063952 -0.0019947475544 0 0 -0.00069408579443 -0.0013614814467
          -0.0019966756331 -0.0024458478029 -0.0025210351615 -0.0020931767619 -0.0011757408514 0
          0 -0.00050226230736 -0.00097767523794 -0.0013812000628 -0.0016420627978 -0.0016523517318
          -0.0013433565962 -0.0007528285992 0 0 -0.00036618056542 -0.00070106434279
          -0.00096096871882 -0.0010970199557 -0.0010658797441 -0.00085008876604 -0.00047321003105 0
          0 -0.00025021509675 -0.00047189375927 -0.00063979794851 -0.00072283203241 -0.00069568474307
          -0.00055017972543 -0.0003028298968 0 0 -0.00016552699134 -0.00031159832385
          -0.00041597670039 -0.00046185421722 -0.00043739355346 -0.00034159011194 -0.00018790365602 0
          0 -9.9141449737e-05 -0.0001851041487 -0.00024664591298 -0.0002729364182 -0.00025763750824
          -0.00020085833085 -0.00010973710446 0 0 -4.658584893e-05 -8.7045698323e-05
          -0.0001151954999 -0.00012665525084 -0.00011882676777 -9.2082940933e-05 -5.0338021905e-05 0
          0 -4.3441916681e-07 -3.802960138e-07 -3.7002644597e-07 -3.6077229796e-07 -2.9395630948e-07
          -1.1783416662e-07 1.5996607378e-07 0 0.46304337328 0.44774485444 0.35580127258
          0.1786456624 -0.027349406222 -0.2315515292 -0.40392909212 -0.48958382151 -0.49850368593
          0.010641403184 0.015216980961 0.017083145699 0.0092598232386 -0.013645998354 -0.036232311947
          -0.043410686143 -0.041072090051 -0.036392213787 0.0052946816168 0.0058336853136 0.0034787518495
          -0.0027912532927 -0.010934989905 -0.018921144074 -0.02480473824 -0.026687417789 -0.025689842401
          -0.0025747147363 -0.0018844123416 -0.0019237516803 -0.0042033045391 -0.0087758801236 -0.013111743701