<?xml version="1.0"?>
<VTKFile type="UnstructuredGrid" version="0.1" byte_order="LittleEndian" header_type="UInt32" compressor="vtkZLibDataCompressor">
  <UnstructuredGrid>
    <Piece NumberOfPoints="405" NumberOfCells="320">
      <PointData>
        <DataArray type="Float64" Name="p" format="ascii" RangeMin="0" RangeMax="0">
          0 0 0 0 0 0
          0 0 0 0 0 0
          0 0 0 0 0 0
          0 0 0 0 0 0
          0 0 0 0 0 0
          0 0 0 0 0 0
          0 0 0 0 0 0
          0 0 0 0 0 0
          0 0 0 0 0 0
          0 0 0 0 0 0
          0 0 0 0 0 0
          0 0 0 0 0 0
          0 0 0 0 0 0
          0 0 0 0 0 0
          0 0 0 0 0 0
          0 0 0 0 0 0
          0 0 0 0 0 0
          0 0 0 0 0 0
          0 0 0 0 0 0
          0 0 0 0 0 0
          0 0 0 0 0 0
          0 0 0 0 0 0
          0 0 0 0 0 0
          0 0 0 0 0 0
          0 0 0 0 0 0
          0 0 0 0 0 0
          0 0 0 0 0 0
          0 0 0 0 0 0
          0 0 0 0 0 0
          0 0 0 0 0 0
          0 0 0 0 0 0
          0 0 0 0 0 0
          0 0 0 0 0 0
          0 0 0 0 0 0
          0 0 0 0 0 0
          0 0 0 0 0 0
          0 0 0 0 0 0
          0 0 0 0 0 0
          0 0 0 0 0 0
          0 0 0 0 0 0
          0 0 0 0 0 0
          0 0 0 0 0 0
          0 0 0 0 0 0
          0 0 0 0 0 0
          0 0 0 0 0 0
          0 0 0 0 0 0
          0 0 0 0 0 0
          0 0 0 0 0 0
          0 0 0 0 0 0
          0 0 0 0 0 0
          0 0 0 0 0 0
          0 0 0 0 0 0
          0 0 0 0 0 0
          0 0 0 0 0 0
          0 0 0 0 0 0
          0 0 0 0 0 0
          0 0 0 0 0 0
          0 0 0 0 0 0
          0 0 0 0 0 0
          0 0 0 0 0 0
          0 0 0 0 0 0
          0 0 0 0 0 0
          0 0 0 0 0 0
          0 0 0 0 0 0
          0 0 0 0 0 0
          0 0 0 0 0 0
          0 0 0 0 0 0
          0 0 0
        </DataArray>
        <DataArray type="Float64" Name="u" NumberOfComponents="3" format="ascii" RangeMin="0" RangeMax="0">
          0 0 0 0 0 0
          0 0 0 0 0 0
          0 0 0 0 0 0
          0 0 0 0 0 0
          0 0 0 0 0 0
          0 0 0 0 0 0
          0 0 0 0 0 0
          0 0 0 0 0 0
          0 0 0 0 0 0
          0 0 0 0 0 0
          0 0 0 0 0 0
          0 0 0 0 0 0
          0 0 0 0 0 0
          0 0 0 0 0 0
          0 0 0 0 0 0
          0 0 0 0 0 0
          0 0 0 0 0 0
          0 0 0 0 0 0
          0 0 0 0 0 0
          0 0 0 0 0 0
          0 0 0 0 0 0
          0 0 0 0 0 0
          0 0 0 0 0 0
          0 0 0 0 0 0
          0 0 0 0 0 0
          0 0 0 0 0 0
          0 0 0 0 0 0
          0 0 0 0 0 0
          0 0 0 0 0 0
          0 0 0 0 0 0
          0 0 0 0 0 0
          0 0 0 0 0 0
          0 0 0 0 0 0
          0 0 0 0 0 0
          0 0 0 0 0 0
          0 0 0 0 0 0
          0 0 0 0 0 0
          0 0 0 0 0 0
          0 0 0 0 0 0
          0 0 0 0 0 0
          0 0 0 0 0 0
          0 0 0 0 0 0
          0 0 0 0 0 0
          0 0 0 0 0 0
          0 0 0 0 0 0
          0 0 0 0 0 0
          0 0 0 0 0 0
          0 0 0 0 0 0
          0 0 0 0 0 0
          0 0 0 0 0 0
          0 0 0 0 0 0
          0 0 0 0 0 0
          0 0 0 0 0 0
          0 0 0 0 0 0
          0 0 0 0 0 0
          0 0 0 0 0 0
          0 0 0 0 0 0
          0 0 0 0 0 0
          0 0 0 0 0 0
          0 0 0 0 0 0
          0 0 0 0 0 0
          0 0 0 0 0 0
          0 0 0 0 0 0
          0 0 0 0 0 0
          0 0 0 0 0 0
          0 0 0 0 0 0
          0 0 0 0 0 0
          0 0 0 0 0 0
          0 0 0 0 0 0
          0 0 0 0 0 0
          0 0 0 0 0 0
          0 0 0 0 0 0
          0 0 0 0 0 0
          0 0 0 0 0 0
          0 0 0 0 0 0
          0 0 0 0 0 0
          0 0 0 0 0 0
          0 0 0 0 0 0
          0 0 0 0 0 0
          0 0 0 0 0 0
          0 0 0 0 0 0
          0 0 0 0 0 0
          0 0 0 0 0 0
          0 0 0 0 0 0
          0 0 0 0 0 0
          0 0 0 0 0 0
          0 0 0 0 0 0
          0 0 0 0 0 0
          0 0 0 0 0 0
          0 0 0 0 0 0
          0 0 0 0 0 0
          0 0 0 0 0 0
          0 0 0 0 0 0
          0 0 0 0 0 0
          0 0 0 0 0 0
          0 0 0 0 0 0
          0 0 0 0 0 0
          0 0 0 0 0 0
          0 0 0 0 0 0
          0 0 0 0 0 0
          0 0 0 0 0 0
          0 0 0 0 0 0
          0 0 0 0 0 0
          0 0 0 0 0 0
          0 0 0 0 0 0
          0 0 0 0 0 0
          0 0 0 0 0 0
          0 0 0 0 0 0
          0 0 0 0 0 0
          0 0 0 0 0 0
          0 0 0 0 0 0
          0 0 0 0 0 0
          0 0 0 0 0 0
          0 0 0 0 0 0
          0 0 0 0 0 0
          0 0 0 0 0 0
          0 0 0 0 0 0
          0 0 0 0 0 0
          0 0 0 0 0 0
          0 0 0 0 0 0
          0 0 0 0 0 0
          0 0 0 0 0 0
          0 0 0 0 0 0
          0 0 0 0 0 0
          0 0 0 0 0 0
          0 0 0 0 0 0
          0 0 0 0 0 0
          0 0 0 0 0 0
          0 0 0 0 0 0
          0 0 0 0 0 0
          0 0 0 0 0 0
          0 0 0 0 0 0
          0 0 0 0 0 0
          0 0 0 0 0 0
          0 0 0 0 0 0
          0 0 0 0 0 0
          0 0 0 0 0 0
          0 0 0 0 0 0
          0 0 0 0 0 0
          0 0 0 0 0 0
          0 0 0 0 0 0
          0 0 0 0 0 0
          0 0 0 0 0 0
          0 0 0 0 0 0
          0 0 0 0 0 0
          0 0 0 0 0 0
          0 0 0 0 0 0
          0 0 0 0 0 0
          0 0 0 0 0 0
          0 0 0 0 0 0
          0 0 0 0 0 0
          0 0 0 0 0 0
          0 0 0 0 0 0
          0 0 0 0 0 0
          0 0 0 0 0 0
          0 0 0 0 0 0
          0 0 0 0 0 0
          0 0 0 0 0 0
          0 0 0 0 0 0
          0 0 0 0 0 0
          0 0 0 0 0 0
          0 0 0 0 0 0
          0 0 0 0 0 0
          0 0 0 0 0 0
          0 0 0 0 0 0
          0 0 0 0 0 0
          0 0 0 0 0 0
          0 0 0 0 0 0
          0 0 0 0 0 0
          0 0 0 0 0 0
          0 0 0 0 0 0
          0 0 0 0 0 0
          0 0 0 0 0 0
          0 0 0 0 0 0
          0 0 0 0 0 0
          0 0 0 0 0 0
          0 0 0 0 0 0
          0 0 0 0 0 0
          0 0 0 0 0 0
          0 0 0 0 0 0
          0 0 0 0 0 0
          0 0 0 0 0 0
          0 0 0 0 0 0
          0 0 0 0 0 0
          0 0 0 0 0 0
          0 0 0 0 0 0
          0 0 0 0 0 0
          0 0 0 0 0 0
          0 0 0 0 0 0
          0 0 0 0 0 0
          0 0 0 0 0 0
          0 0 0 0 0 0
          0 0 0 0 0 0
          0 0 0 0 0 0
          0 0 0 0 0 0
          0 0 0 0 0 0
          0 0 0 0 0 0
          0 0 0 0 0 0
          0 0 0 0 0 0
          0 0 0 0 0 0
          0 0 0 0 0 0
          0 0 0 0 0 0
          0 0 0
        </DataArray>
        <DataArray type="Float64" Name="u_x" format="ascii" RangeMin="0" RangeMax="0">
          0 0 0 0 0 0
          0 0 0 0 0 0
          0 0 0 0 0 0
          0 0 0 0 0 0
          0 0 0 0 0 0
          0 0 0 0 0 0
          0 0 0 0 0 0
          0 0 0 0 0 0
          0 0 0 0 0 0
          0 0 0 0 0 0
          0 0 0 0 0 0
          0 0 0 0 0 0
          0 0 0 0 0 0
          0 0 0 0 0 0
          0 0 0 0 0 0
          0 0 0 0 0 0
          0 0 0 0 0 0
          0 0 0 0 0 0
          0 0 0 0 0 0
          0 0 0 0 0 0
          0 0 0 0 0 0
          0 0 0 0 0 0
          0 0 0 0 0 0
          0 0 0 0 0 0
          0 0 0 0 0 0
          0 0 0 0 0 0
          0 0 0 0 0 0
          0 0 0 0 0 0
          0 0 0 0 0 0
          0 0 0 0 0 0
          0 0 0 0 0 0
          0 0 0 0 0 0
          0 0 0 0 0 0
          0 0 0 0 0 0
          0 0 0 0 0 0
          0 0 0 0 0 0
          0 0 0 0 0 0
          0 0 0 0 0 0
          0 0 0 0 0 0
          0 0 0 0 0 0
          0 0 0 0 0 0
          0 0 0 0 0 0
          0 0 0 0 0 0
          0 0 0 0 0 0
          0 0 0 0 0 0
          0 0 0 0 0 0
          0 0 0 0 0 0
          0 0 0 0 0 0
          0 0 0 0 0 0
          0 0 0 0 0 0
          0 0 0 0 0 0
          0 0 0 0 0 0
          0 0 0 0 0 0
          0 0 0 0 0 0
          0 0 0 0 0 0
          0 0 0 0 0 0
          0 0 0 0 0 0
          0 0 0 0 0 0
          0 0 0 0 0 0
          0 0 0 0 0 0
          0 0 0 0 0 0
          0 0 0 0 0 0
          0 0 0 0 0 0
          0 0 0 0 0 0
          0 0 0 0 0 0
          0 0 0 0 0 0
          0 0 0 0 0 0
          0 0 0
        </DataArray>
        <DataArray type="Float64" Name="u_y" format="ascii" RangeMin="0" RangeMax="0">
          0 0 0 0 0 0
          0 0 0 0 0 0
          0 0 0 0 0 0
          0 0 0 0 0 0
          0 0 0 0 0 0
          0 0 0 0 0 0
          0 0 0 0 0 0
          0 0 0 0 0 0
          0 0 0 0 0 0
          0 0 0 0 0 0
          0 0 0 0 0 0
          0 0 0 0 0 0
          0 0 0 0 0 0
          0 0 0 0 0 0
          0 0 0 0 0 0
          0 0 0 0 0 0
          0 0 0 0 0 0
          0 0 0 0 0 0
          0 0 0 0 0 0
          0 0 0 0 0 0
          0 0 0 0 0 0
          0 0 0 0 0 0
          0 0 0 0 0 0
          0 0 0 0 0 0
          0 0 0 0 0 0
          0 0 0 0 0 0
          0 0 0 0 0 0
          0 0 0 0 0 0
          0 0 0 0 0 0
          0 0 0 0 0 0
          0 0 0 0 0 0
          0 0 0 0 0 0
          0 0 0 0 0 0
          0 0 0 0 0 0
          0 0 0 0 0 0
          0 0 0 0 0 0
          0 0 0 0 0 0
          0 0 0 0 0 0
          0 0 0 0 0 0
          0 0 0 0 0 0
          0 0 0 0 0 0
          0 0 0 0 0 0
          0 0 0 0 0 0
          0 0 0 0 0 0
          0 0 0 0 0 0
          0 0 0 0 0 0
          0 0 0 0 0 0
          0 0 0 0 0 0
          0 0 0 0 0 0
          0 0 0 0 0 0
          0 0 0 0 0 0
          0 0 0 0 0 0
          0 0 0 0 0 0
          0 0 0 0 0 0
          0 0 0 0 0 0
          0 0 0 0 0 0
          0 0 0 0 0 0
          0 0 0 0 0 0
          0 0 0 0 0 0
          0 0 0 0 0 0
          0 0 0 0 0 0
          0 0 0 0 0 0
          0 0 0 0 0 0
          0 0 0 0 0 0
          0 0 0 0 0 0
          0 0 0 0 0 0
          0 0 0 0 0 0
          0 0 0
        </DataArray>
      </PointData>
      <CellData>
      </CellData>
      <Points>
        <DataArray type="Float64" Name="Points" NumberOfComponents="3" format="ascii" RangeMin="0.49997784922" RangeMax="31.622776602">
          10 -10 0 10 -7.5 0
          10 -5 0 10 -2.5 0
          10 0 0 10 2.5 0
          10 5 0 10 7.5 0
          10 10 0 12.5 -10 0
          12.5 -7.5 0 12.5 -5 0
          12.5 -2.5 0 12.5 0 0
          12.5 2.5 0 12.5 5 0
          12.5 7.5 0 12.5 10 0
          15 -10 0 15 -7.5 0
          15 -5 0 15 -2.5 0
          15 0 0 15 2.5 0
          15 5 0 15 7.5 0
          15 10 0 17.5 -10 0
          17.5 -7.5 0 17.5 -5 0
          17.5 -2.5 0 17.5 0 0
          17.5 2.5 0 17.5 5 0
          17.5 7.5 0 17.5 10 0
          20 -10 0 20 -7.5 0
          20 -5 0 20 -2.5 0
          20 0 0 20 2.5 0
          20 5 0 20 7.5 0
          20 10 0 22.5 -10 0
          22.5 -7.5 0 22.5 -5 0
          22.5 -2.5 0 22.5 0 0
          22.5 2.5 0 22.5 5 0
          22.5 7.5 0 22.5 10 0
          25 -10 0 25 -7.5 0
          25 -5 0 25 -2.5 0
          25 0 0 25 2.5 0
          25 5 0 25 7.5 0
          25 10 0 27.5 -10 0
          27.5 -7.5 0 27.5 -5 0
          27.5 -2.5 0 27.5 0 0
          27.5 2.5 0 27.5 5 0
          27.5 7.5 0 27.5 10 0
          30 -10 0 30 -7.5 0
          30 -5 0 30 -2.5 0
          30 0 0 30 2.5 0
          30 5 0 30 7.5 0
          30 10 0 0.35355339 -0.35355339 0
          0.41198471323 -0.28329752048 0 0.45886055383 -0.19857202421 0
          0.48937181475 -0.10244394498 0 0.49997784922 -5.2041704279e-17 0
          0.48937181475 0.10244394498 0 0.45886055383 0.19857202421 0
          0.41198471323 0.28329752048 0 0.35355339 0.35355339 0
          1.5690266918 -1.5690266918 0 1.6928330083 -1.2465898649 0
          1.7906555301 -0.86787139153 0 1.8536216305 -0.44577900622 0
          1.8753808795 -2.4980018054e-16 0 1.8536216305 0.44577900622 0
          1.7906555301 0.86787139153 0 1.6928330083 1.2465898649 0
          1.5690266918 1.5690266918 0 2.7817378577 -2.7817378577 0
          2.9489634711 -2.1915220115 0 3.0791245101 -1.5156596995 0
          3.1620008353 -0.77522128224 0 3.1904779421 -2.4980018054e-16 0
          3.1620008353 0.77522128224 0 3.0791245101 1.5156596995 0
          2.9489634711 2.1915220115 0 2.7817378577 2.7817378577 0
          3.9916868877 -3.9916868877 0 4.1809976973 -3.1185505321 0
          4.3261846793 -2.1428832097 0 4.4176563997 -1.0915495346 0
          4.4489147567 -2.4980018054e-16 0 4.4176563997 1.0915495346 0
          4.3261846793 2.1428832097 0 4.1809976973 3.1185505321 0
          3.9916868877 3.9916868877 0 5.1988737819 -5.1988737819 0
          5.3895352329 -4.0281152895 0 5.5336394576 -2.7504325235 0
          5.623499692 -1.3954847433 0 5.6540447657 4.9960036108e-16 0
          5.623499692 1.3954847433 0 5.5336394576 2.7504325235 0
          5.3895352329 4.0281152895 0 5.1988737819 5.1988737819 0
          6.4032985402 -6.4032985402 0 6.5751548788 -4.9206404971 0
          6.7031888822 -3.3391476508 0 6.7822322636 -1.687696359 0
          6.8089629452 7.4940054162e-16 0 6.7822322636 1.687696359 0
          6.7031888822 3.3391476508 0 6.5751548788 4.9206404971 0
          6.4032985402 6.4032985402 0 7.6049611627 -7.6049611627 0
          7.7384154737 -5.7965353694 0 7.8364366087 -3.9098214246 0
          7.8963636503 -1.9688066173 0 7.9165292488 2.7478019859e-15 0
          7.8963636503 1.9688066173 0 7.8364366087 3.9098214246 0
          7.7384154737 5.7965353694 0 7.6049611627 7.6049611627 0
          8.8038616493 -8.8038616493 0 8.8798567831 -6.6561948427 0
          8.9348969826 -4.4632029464 0 8.9682286504 -2.2393947377 0
          8.9793910919 5.051514762e-15 0 8.9682286504 2.2393947377 0
          8.9348969826 4.4632029464 0 8.8798567831 6.6561948427 0
          8.8038616493 8.8038616493 0 10 -10 0
          10 -7.5 0 10 -5 0
          10 -2.5 0 10 0 0
          10 2.5 0 10 5 0
          10 7.5 0 10 10 0
          0.35355339 0.35355339 0 0.28329752048 0.41198471323 0
          0.19857202421 0.45886055383 0 0.10244394498 0.48937181475 0
          5.2041704279e-17 0.49997784922 0 -0.10244394498 0.48937181475 0
          -0.19857202421 0.45886055383 0 -0.28329752048 0.41198471323 0
          -0.35355339 0.35355339 0 1.5690266918 1.5690266918 0
          1.2465898649 1.6928330083 0 0.86787139153 1.7906555301 0
          0.44577900622 1.8536216305 0 0 1.8753808795 0
          -0.44577900622 1.8536216305 0 -0.86787139153 1.7906555301 0
          -1.2465898649 1.6928330083 0 -1.5690266918 1.5690266918 0
          2.7817378577 2.7817378577 0 2.1915220115 2.9489634711 0
          1.5156596995 3.0791245101 0 0.77522128224 3.1620008353 0
          0 3.1904779421 0 -0.77522128224 3.1620008353 0
          -1.5156596995 3.0791245101 0 -2.1915220115 2.9489634711 0
          -2.7817378577 2.7817378577 0 3.9916868877 3.9916868877 0
          3.1185505321 4.1809976973 0 2.1428832097 4.3261846793 0
          1.0915495346 4.4176563997 0 0 4.4489147567 0
          -1.0915495346 4.4176563997 0 -2.1428832097 4.3261846793 0
          -3.1185505321 4.1809976973 0 -3.9916868877 3.9916868877 0
          5.1988737819 5.1988737819 0 4.0281152895 5.3895352329 0
          2.7504325235 5.5336394576 0 1.3954847433 5.623499692 0
          -4.9960036108e-16 5.6540447657 0 -1.3954847433 5.623499692 0
          -2.7504325235 5.5336394576 0 -4.0281152895 5.3895352329 0
          -5.1988737819 5.1988737819 0 6.4032985402 6.4032985402 0
          4.9206404971 6.5751548788 0 3.3391476508 6.7031888822 0
          1.687696359 6.7822322636 0 -7.4940054162e-16 6.8089629452 0
          -1.687696359 6.7822322636 0 -3.3391476508 6.7031888822 0
          -4.9206404971 6.5751548788 0 -6.4032985402 6.4032985402 0
          7.6049611627 7.6049611627 0 5.7965353694 7.7384154737 0
          3.9098214246 7.8364366087 0 1.9688066173 7.8963636503 0
          -2.7478019859e-15 7.9165292488 0 -1.9688066173 7.8963636503 0
          -3.9098214246 7.8364366087 0 -5.7965353694 7.7384154737 0
          -7.6049611627 7.6049611627 0 8.8038616493 8.8038616493 0
          6.6561948427 8.8798567831 0 4.4632029464 8.9348969826 0
          2.2393947377 8.9682286504 0 -5.051514762e-15 8.9793910919 0
          -2.2393947377 8.9682286504 0 -4.4632029464 8.9348969826 0
          -6.6561948427 8.8798567831 0 -8.8038616493 8.8038616493 0
          10 10 0 7.5 10 0
          5 10 0 2.5 10 0
          0 10 0 -2.5 10 0
          -5 10 0 -7.5 10 0
          -10 10 0 -0.35355339 0.35355339 0
          -0.41198471323 0.28329752048 0 -0.45886055383 0.19857202421 0
          -0.48937181475 0.10244394498 0 -0.49997784922 5.2041704279e-17 0
          -0.48937181475 -0.10244394498 0 -0.45886055383 -0.19857202421 0
          -0.41198471323 -0.28329752048 0 -0.35355339 -0.35355339 0
          -1.5690266918 1.5690266918 0 -1.6928330083 1.2465898649 0
          -1.7906555301 0.86787139153 0 -1.8536216305 0.44577900622 0
          -1.8753808795 0 0 -1.8536216305 -0.44577900622 0
          -1.7906555301 -0.86787139153 0 -1.6928330083 -1.2465898649 0
          -1.5690266918 -1.5690266918 0 -2.7817378577 2.7817378577 0
          -2.9489634711 2.1915220115 0 -3.0791245101 1.5156596995 0
          -3.1620008353 0.77522128224 0 -3.1904779421 0 0
          -3.1620008353 -0.77522128224 0 -3.0791245101 -1.5156596995 0
          -2.9489634711 -2.1915220115 0 -2.7817378577 -2.7817378577 0
          -3.9916868877 3.9916868877 0 -4.1809976973 3.1185505321 0
          -4.3261846793 2.1428832097 0 -4.4176563997 1.0915495346 0
          -4.4489147567 0 0 -4.4176563997 -1.0915495346 0
          -4.3261846793 -2.1428832097 0 -4.1809976973 -3.1185505321 0
          -3.9916868877 -3.9916868877 0 -5.1988737819 5.1988737819 0
          -5.3895352329 4.0281152895 0 -5.5336394576 2.7504325235 0
          -5.623499692 1.3954847433 0 -5.6540447657 -4.9960036108e-16 0
          -5.623499692 -1.3954847433 0 -5.5336394576 -2.7504325235 0
          -5.3895352329 -4.0281152895 0 -5.1988737819 -5.1988737819 0
          -6.4032985402 6.4032985402 0 -6.5751548788 4.9206404971 0
          -6.7031888822 3.3391476508 0 -6.7822322636 1.687696359 0
          -6.8089629452 -7.4940054162e-16 0 -6.7822322636 -1.687696359 0
          -6.7031888822 -3.3391476508 0 -6.5751548788 -4.9206404971 0
          -6.4032985402 -6.4032985402 0 -7.6049611627 7.6049611627 0
          -7.7384154737 5.7965353694 0 -7.8364366087 3.9098214246 0
          -7.8963636503 1.9688066173 0 -7.9165292488 -2.7478019859e-15 0
          -7.8963636503 -1.9688066173 0 -7.8364366087 -3.9098214246 0
          -7.7384154737 -5.7965353694 0 -7.6049611627 -7.6049611627 0
          -8.8038616493 8.8038616493 0 -8.8798567831 6.6561948427 0
          -8.9348969826 4.4632029464 0 -8.9682286504 2.2393947377 0
          -8.9793910919 -5.051514762e-15 0 -8.9682286504 -2.2393947377 0
          -8.9348969826 -4.4632029464 0 -8.8798567831 -6.6561948427 0
          -8.8038616493 -8.8038616493 0 -10 10 0
          -10 7.5 0 -10 5 0
          -10 2.5 0 -10 0 0
          -10 -2.5 0 -10 -5 0
          -10 -7.5 0 -10 -10 0
          -0.35355339 -0.35355339 0 -0.28329752048 -0.41198471323 0
          -0.19857202421 -0.45886055383 0 -0.10244394498 -0.48937181475 0
          -5.2041704279e-17 -0.49997784922 0 0.10244394498 -0.48937181475 0
          0.19857202421 -0.45886055383 0 0.28329752048 -0.41198471323 0
          0.35355339 -0.35355339 0 -1.5690266918 -1.5690266918 0
          -1.2465898649 -1.6928330083 0 -0.86787139153 -1.7906555301 0
          -0.44577900622 -1.8536216305 0 0 -1.8753808795 0
          0.44577900622 -1.8536216305 0 0.86787139153 -1.7906555301 0
          1.2465898649 -1.6928330083 0 1.5690266918 -1.5690266918 0
          -2.7817378577 -2.7817378577 0 -2.1915220115 -2.9489634711 0
          -1.5156596995 -3.0791245101 0 -0.77522128224 -3.1620008353 0
          0 -3.1904779421 0 0.77522128224 -3.1620008353 0
          1.5156596995 -3.0791245101 0 2.1915220115 -2.9489634711 0
          2.7817378577 -2.7817378577 0 -3.9916868877 -3.9916868877 0
          -3.1185505321 -4.1809976973 0 -2.1428832097 -4.3261846793 0
          -1.0915495346 -4.4176563997 0 0 -4.4489147567 0
          1.0915495346 -4.4176563997 0 2.1428832097 -4.3261846793 0
          3.1185505321 -4.1809976973 0 3.9916868877 -3.9916868877 0
          -5.1988737819 -5.1988737819 0 -4.0281152895 -5.3895352329 0
          -2.7504325235 -5.5336394576 0 -1.3954847433 -5.623499692 0
          4.9960036108e-16 -5.6540447657 0 1.3954847433 -5.623499692 0
          2.7504325235 -5.5336394576 0 4.0281152895 -5.3895352329 0
          5.1988737819 -5.1988737819 0 -6.4032985402 -6.4032985402 0
          -4.9206404971 -6.5751548788 0 -3.3391476508 -6.7031888822 0
          -1.687696359 -6.7822322636 0 7.4940054162e-16 -6.8089629452 0
          1.687696359 -6.7822322636 0 3.3391476508 -6.7031888822 0
          4.9206404971 -6.5751548788 0 6.4032985402 -6.4032985402 0
          -7.6049611627 -7.6049611627 0 -5.7965353694 -7.7384154737 0
          -3.9098214246 -7.8364366087 0 -1.9688066173 -7.8963636503 0
          2.7478019859e-15 -7.9165292488 0 1.9688066173 -7.8963636503 0
          3.9098214246 -7.8364366087 0 5.7965353694 -7.7384154737 0
          7.6049611627 -7.6049611627 0 -8.8038616493 -8.8038616493 0
          -6.6561948427 -8.8798567831 0 -4.4632029464 -8.9348969826 0
          -2.2393947377 -8.9682286504 0 5.051514762e-15 -8.9793910919 0
          2.2393947377 -8.9682286504 0 4.4632029464 -8.9348969826 0
          6.6561948427 -8.8798567831 0 8.8038616493 -8.8038616493 0
          -10 -10 0 -7.5 -10 0
          -5 -10 0 -2.5 -10 0
          0 -10 0 2.5 -10 0
          5 -10 0 7.5 -10 0
          10 -10 0
        </DataArray>
      </Points>
      <Cells>
        <DataArray type="Int64" Name="connectivity" format="ascii" RangeMin="0" RangeMax="404">
          0 9 10 1 1 10
          11 2 2 11 12 3
          3 12 13 4 4 13
          14 5 5 14 15 6
          6 15 16 7 7 16
          17 8 9 18 19 10
          10 19 20 11 11 20
          21 12 12 21 22 13
          13 22 23 14 14 23
          24 15 15 24 25 16
          16 25 26 17 18 27
          28 19 19 28 29 20
          20 29 30 21 21 30
          31 22 22 31 32 23
          23 32 33 24 24 33
          34 25 25 34 35 26
          27 36 37 28 28 37
          38 29 29 38 39 30
          30 39 40 31 31 40
          41 32 32 41 42 33
          33 42 43 34 34 43
          44 35 36 45 46 37
          37 46 47 38 38 47
          48 39 39 48 49 40
          40 49 50 41 41 50
          51 42 42 51 52 43
          43 52 53 44 45 54
          55 46 46 55 56 47
          47 56 57 48 48 57
          58 49 49 58 59 50
          50 59 60 51 51 60
          61 52 52 61 62 53
          54 63 64 55 55 64
          65 56 56 65 66 57
          57 66 67 58 58 67
          68 59 59 68 69 60
          60 69 70 61 61 70
          71 62 63 72 73 64
          64 73 74 65 65 74
          75 66 66 75 76 67
          67 76 77 68 68 77
          78 69 69 78 79 70
          70 79 80 71 81 90
          91 82 82 91 92 83
          83 92 93 84 84 93
          94 85 85 94 95 86
          86 95 96 87 87 96
          97 88 88 97 98 89
          90 99 100 91 91 100
          101 92 92 101 102 93
          93 102 103 94 94 103
          104 95 95 104 105 96
          96 105 106 97 97 106
          107 98 99 108 109 100
          100 109 110 101 101 110
          111 102 102 111 112 103
          103 112 113 104 104 113
          114 105 105 114 115 106
          106 115 116 107 108 117
          118 109 109 118 119 110
          110 119 120 111 111 120
          121 112 112 121 122 113
          113 122 123 114 114 123
          124 115 115 124 125 116
          117 126 127 118 118 127
          128 119 119 128 129 120
          120 129 130 121 121 130
          131 122 122 131 132 123
          123 132 133 124 124 133
          134 125 126 135 136 127
          127 136 137 128 128 137
          138 129 129 138 139 130
          130 139 140 131 131 140
          141 132 132 141 142 133
          133 142 143 134 135 144
          145 136 136 145 146 137
          137 146 147 138 138 147
          148 139 139 148 149 140
          140 149 150 141 141 150
          151 142 142 151 152 143
          144 153 154 145 145 154
          155 146 146 155 156 147
          147 156 157 148 148 157
          158 149 149 158 159 150
          150 159 160 151 151 160
          161 152 162 171 172 163
          163 172 173 164 164 173
          174 165 165 174 175 166
          166 175 176 167 167 176
          177 168 168 177 178 169
          169 178 179 170 171 180
          181 172 172 181 182 173
          173 182 183 174 174 183
          184 175 175 184 185 176
          176 185 186 177 177 186
          187 178 178 187 188 179
          180 189 190 181 181 190
          191 182 182 191 192 183
          183 192 193 184 184 193
          194 185 185 194 195 186
          186 195 196 187 187 196
          197 188 189 198 199 190
          190 199 200 191 191 200
          201 192 192 201 202 193
          193 202 203 194 194 203
          204 195 195 204 205 196
          196 205 206 197 198 207
          208 199 199 208 209 200
          200 209 210 201 201 210
          211 202 202 211 212 203
          203 212 213 204 204 213
          214 205 205 214 215 206
          207 216 217 208 208 217
          218 209 209 218 219 210
          210 219 220 211 211 220
          221 212 212 221 222 213
          213 222 223 214 214 223
          224 215 216 225 226 217
          217 226 227 218 218 227
          228 219 219 228 229 220
          220 229 230 221 221 230
          231 222 222 231 232 223
          223 232 233 224 225 234
          235 226 226 235 236 227
          227 236 237 228 228 237
          238 229 229 238 239 230
          230 239 240 231 231 240
          241 232 232 241 242 233
          243 252 253 244 244 253
          254 245 245 254 255 246
          246 255 256 247 247 256
          257 248 248 257 258 249
          249 258 259 250 250 259
          260 251 252 261 262 253
          253 262 263 254 254 263
          264 255 255 264 265 256
          256 265 266 257 257 266
          267 258 258 267 268 259
          259 268 269 260 261 270
          271 262 262 271 272 263
          263 272 273 264 264 273
          274 265 265 274 275 266
          266 275 276 267 267 276
          277 268 268 277 278 269
          270 279 280 271 271 280
          281 272 272 281 282 273
          273 282 283 274 274 283
          284 275 275 284 285 276
          276 285 286 277 277 286
          287 278 279 288 289 280
          280 289 290 281 281 290
          291 282 282 291 292 283
          283 292 293 284 284 293
          294 285 285 294 295 286
          286 295 296 287 288 297
          298 289 289 298 299 290
          290 299 300 291 291 300
          301 292 292 301 302 293
          293 302 303 294 294 303
          304 295 295 304 305 296
          297 306 307 298 298 307
          308 299 299 308 309 300
          300 309 310 301 301 310
          311 302 302 311 312 303
          303 312 313 304 304 313
          314 305 306 315 316 307
          307 316 317 308 308 317
          318 309 309 318 319 310
          310 319 320 311 311 320
          321 312 312 321 322 313
          313 322 323 314 324 333
          334 325 325 334 335 326
          326 335 336 327 327 336
          337 328 328 337 338 329
          329 338 339 330 330 339
          340 331 331 340 341 332
          333 342 343 334 334 343
          344 335 335 344 345 336
          336 345 346 337 337 346
          347 338 338 347 348 339
          339 348 349 340 340 349
          350 341 342 351 352 343
          343 352 353 344 344 353
          354 345 345 354 355 346
          346 355 356 347 347 356
          357 348 348 357 358 349
          349 358 359 350 351 360
          361 352 352 361 362 353
          353 362 363 354 354 363
          364 355 355 364 365 356
          356 365 366 357 357 366
          367 358 358 367 368 359
          360 369 370 361 361 370
          371 362 362 371 372 363
          363 372 373 364 364 373
          374 365 365 374 375 366
          366 375 376 367 367 376
          377 368 369 378 379 370
          370 379 380 371 371 380
          381 372 372 381 382 373
          373 382 383 374 374 383
          384 375 375 384 385 376
          376 385 386 377 378 387
          388 379 379 388 389 380
          380 389 390 381 381 390
          391 382 382 391 392 383
          383 392 393 384 384 393
          394 385 385 394 395 386
          387 396 397 388 388 397
          398 389 389 398 399 390
          390 399 400 391 391 400
          401 392 392 401 402 393
          393 402 403 394 394 403
          404 395
        </DataArray>
        <DataArray type="Int64" Name="offsets" format="ascii" RangeMin="4" RangeMax="1280">
          4 8 12 16 20 24
          28 32 36 40 44 48
          52 56 60 64 68 72
          76 80 84 88 92 96
          100 104 108 112 116 120
          124 128 132 136 140 144
          148 152 156 160 164 168
          172 176 180 184 188 192
          196 200 204 208 212 216
          220 224 228 232 236 240
          244 248 252 256 260 264
          268 272 276 280 284 288
          292 296 300 304 308 312
          316 320 324 328 332 336
          340 344 348 352 356 360
          364 368 372 376 380 384
          388 392 396 400 404 408
          412 416 420 424 428 432
          436 440 444 448 452 456
          460 464 468 472 476 480
          484 488 492 496 500 504
          508 512 516 520 524 528
          532 536 540 544 548 552
          556 560 564 568 572 576
          580 584 588 592 596 600
          604 608 612 616 620 624
          628 632 636 640 644 648
          652 656 660 664 668 672
          676 680 684 688 692 696
          700 704 708 712 716 720
          724 728 732 736 740 744
          748 752 756 760 764 768
          772 776 780 784 788 792
          796 800 804 808 812 816
          820 824 828 832 836 840
          844 848 852 856 860 864
          868 872 876 880 884 888
          892 896 900 904 908 912
          916 920 924 928 932 936
          940 944 948 952 956 960
          964 968 972 976 980 984
          988 992 996 1000 1004 1008
          1012 1016 1020 1024 1028 1032
          1036 1040 1044 1048 1052 1056