<?xml version="1.0"?>
<VTKFile type="UnstructuredGrid" version="0.1" byte_order="LittleEndian" header_type="UInt32" compressor="vtkZLibDataCompressor">
  <UnstructuredGrid>
    <Piece NumberOfPoints="405" NumberOfCells="320">
      <PointData>
        <DataArray type="Float64" Name="p" format="ascii" RangeMin="-0.00035857950457" RangeMax="32607.479556">
          15979.882832 15980.867313 15984.042278 15989.417714 15997.239494 16006.889558
          16016.303941 16022.993796 16025.468867 13985.820428 13986.662404 13989.157787
          13993.267787 13998.773842 14005.030165 14010.886028 14015.042886 14016.540145
          11990.227021 11990.854094 11992.706897 11995.660741 11999.445191 12003.562677
          12007.306092 12009.925856 12010.871158 9993.3539548 9993.8073233 9995.1251811
          9997.1842032 9999.7486722 10002.461236 10004.875478 10006.545502 10007.14297
          7995.5705949 7995.8832192 7996.7875712 7998.1805585 7999.8856909 8001.6582759
          8003.2134823 8004.2785618 8004.658521 5997.148539 5997.3547333 5997.9473827
          5998.852632 5999.9483304 6001.0742558 6002.0524275 6002.717972 6002.9542973
          3998.3075552 3998.4315724 3998.7872577 3999.3275801 3999.9772581 4000.6403018
          4001.2128751 4001.6006617 4001.7381228 1999.2129564 1999.2710814 1999.4374419
          1999.6894802 1999.9914075 2000.2983519 2000.5625043 2000.74099 2000.8041458
          -0.00035857950457 -0.00030289319212 -0.00024857604678 -0.00014378921726 -2.1612168479e-05 0.00010759020735
          0.00022337012105 0.00029218808095 0.00035578151246 23470.833539 23381.140897 23309.007601
          23262.222187 23247.142463 23268.570868 23321.315111 23398.722181 23492.813316
          22699.520072 22593.748532 22507.231868 22450.810913 22434.812454 22463.08633
          22531.111596 22628.123518 22743.09553 21732.215407 21597.144092 21492.288791
          21427.165174 21409.856241 21443.813715 21524.934684 21644.65624 21793.171916
          20772.869475 20623.305008 20509.037172 20439.399045 20421.652163 20458.354877
          20546.170681 20677.258662 20841.99369 19807.748602 19658.469161 19546.899243
          19480.148081 19463.872318 19500.029463 19585.659734 19714.35955 19878.632342
          18847.839238 18713.580213 18615.280798 18557.762106 18544.821038 18577.674048
          18653.765396 18768.247964 18915.693478 17888.979545 17785.134519 17710.842014
          17668.807949 17661.147904 17688.19083 17747.85141 17836.590158 17950.819833
          16933.373786 16874.601015 16834.31392 16813.374125 16812.636831 16831.893487
          16869.137725 16921.677767 16987.448119 15979.882832 15980.867313 15984.042278
          15989.417714 15997.239494 16006.889558 16016.303941 16022.993796 16025.468867
          23492.813316 23600.351701 23732.212463 23884.002477 24046.77215 24208.892203
          24358.810012 24487.778773 24591.71828 22743.09553 23009.005498 23324.889421
          23682.437458 24064.291091 24445.387239 24800.794591 25113.445061 25375.314418
          21793.171916 22275.69061 22830.818197 23441.998447 24084.214303 24726.214772
          25336.67683 25890.370308 26370.444392 20841.99369 21549.917197 22344.293608
          23204.649353 24101.504719 24999.454311 25862.789092 26661.192713 27373.000885
          19878.632342 20827.21667 21865.730009 22971.755001 24115.778066 25263.065723
          26378.438453 27431.099583 28396.542865 18915.693478 20114.30228 21397.656498
          22743.989972 24126.70857 25515.608341 26880.206652 28192.907106 29429.877177
          17950.819833 19411.346377 20940.594631 22521.56218 24134.316278 25756.703337
          27366.980544 28945.903358 30477.084242 16987.448119 18719.480603 20494.89021
          22304.618913 24138.706559 25986.117945 27837.608788 29687.478885 31535.722862
          16025.468867 18039.083665 20060.598822 22093.199509 24140.100939 26203.989204
          28291.139738 30414.557554 32607.479556 24591.71828 24681.575087 24753.721175
          24800.308873 24814.977542 24792.965588 24739.615356 24661.698033 24567.27593
          25375.314418 25479.298203 25562.924697 25615.507051 25627.099395 25594.404342
          25522.503202 25422.564316 25305.773971 26370.444392 26499.330636 26594.916879
          26648.168917 26652.091549 26604.710505 26511.621143 26382.503331 26227.674421
          27373.000885 27509.34344 27604.413057 27649.829797 27640.439668 27576.527663
          27464.298484 27313.760195 27135.549471 28396.542865 28523.386013 28602.311282
          28628.018696 28598.430892 28516.249569 28389.158744 28227.287399 28040.08351
          29429.877177 29530.915941 29579.647868 29574.6427 29517.794005 29414.835247
          29275.413911 29110.397257 28928.910926 30477.084242 30536.455507 30540.468887
          30493.467446 30401.904953 30275.035136 30124.856382 29964.192971 29804.287093
          31535.722862 31539.883958 31484.748748 31384.656014 31251.01567 31096.297643
          30935.470976 30784.942917 30663.072838 32607.479556 32545.068892 32414.951081
          32250.408386 32067.22148 31880.324741 31707.554 31570.218255 31504.811311
          24567.27593 24459.526009 24327.624085 24176.012949 24013.661958 23852.131704
          23702.846199 23574.409687 23470.833539 25305.773971 25041.755743 24728.80243
          24375.052873 23997.506227 23620.735145 23269.1641 22959.477732 22699.520072
          26227.674421 25752.336047 25206.827326 24607.132546 23977.421407 23347.943196
          22749.015475 22205.014327 21732.215407 27135.549471 26444.814576 25670.877289
          24833.178576 23960.091941 23085.92384 22245.285126 21467.388879 20772.869475
          28040.08351 27124.988665 26122.134131 25052.756186 23945.715604 22835.408117
          21756.677439 20739.675378 19807.748602 28928.910926 27788.112381 26560.08973
          25266.417048 23934.714839 22596.799591 21284.762502 20027.224791 18847.839238
          29804.287093 28436.160923 26986.178244 25474.984484 23927.042523 22369.397106
          20828.656702 19328.54 17888.979545 30663.072838 29070.773352 27402.041773
          25679.279611 23922.617132 22152.518663 20387.591137 18643.539814 16933.373786
          31504.811311 29695.428188 27809.586209 25880.019499 23921.21054 21945.267736
          19960.580026 17971.540526 15979.882832
        </DataArray>
        <DataArray type="Float64" Name="u" NumberOfComponents="3" format="ascii" RangeMin="0.34035593671" RangeMax="1.3838170838">
          0.79704714728 0 0 0.79719298089 -0.00083311939047 0
          0.79745546861 -0.0017014340452 0 0.79800763101 -0.0026644262661 0
          0.79910187775 -0.0035859090399 0 0.8007672228 -0.0039560834196 0
          0.80254453416 -0.0033554991599 0 0.80382748445 -0.0019005383464 0
          0.8042393461 0 0 0.79793167643 0 0
          0.79801828763 -0.00067147879259 0 0.79829188949 -0.0013282608716 0
          0.79879893875 -0.001949418505 0 0.79960571145 -0.0024148697121 0
          0.80066429857 -0.0025112014212 0 0.80173550188 -0.002082643473 0
          0.80251418133 -0.0011735078643 0 0.8027961077 0 0
          0.79851756524 0 0 0.7985956898 -0.00049999804358 0
          0.79883409027 -0.00097327060917 0 0.79924542872 -0.0013728271233 0
          0.79982441568 -0.0016219721605 0 0.80050964295 -0.0016237592815 0
          0.80116910727 -0.0013192860435 0 0.80164552782 -0.00074031375054 0
          0.80181797034 0 0 0.79895207756 0 0
          0.79901541339 -0.00035975688611 0 0.79920436764 -0.00068731303555 0
          0.7995131054 -0.00094472634255 0 0.7999204797 -0.0010831987966 0
          0.80037572621 -0.001056673644 0 0.80079795184 -0.00084414273149 0
          0.80109730103 -0.00046902463431 0 0.80120496918 0 0
          0.79925751623 0 0 0.79930619007 -0.00024775677281 0
          0.79944958402 -0.00046870721379 0 0.79967665648 -0.00063384544119 0
          0.79996390563 -0.00071385371154 0 0.80027235059 -0.00068516595043 0
          0.80055017301 -0.0005407027313 0 0.80074415372 -0.00029851875069 0
          0.80081366422 0 0 0.79946509001 0 0
          0.79950229142 -0.00016312498312 0 0.79961015792 -0.00030630162569 0
          0.79977729027 -0.00040991383307 0 0.79998345912 -0.00045601729218 0
          0.80019941745 -0.00043270516554 0 0.80039009589 -0.00033855620462 0
          0.80052134966 -0.00018589052565 0 0.80056792893 0 0
          0.799596986 0 0 0.79962591217 -9.8054915638e-05 0
          0.799709481 -0.00018334850915 0 0.79983726329 -0.00024385690972 0
          0.79999219515 -0.00026947160071 0 0.80015168924 -0.00025406823197 0
          0.80029043991 -0.00019772331027 0 0.8003850044 -0.00010819121537 0
          0.80041848383 0 0 0.79966975501 0 0
          0.7996939771 -4.5933948678e-05 0 0.79976356543 -8.5696939544e-05 0
          0.79986913156 -0.00011358579982 0 0.79999589443 -0.00012498913033 0
          0.80012507286 -0.00011736861689 0 0.80023646573 -9.1058196239e-05 0
          0.80031188238 -4.9732509846e-05 0 0.80033846115 0 0
          0.79969298586 0 0 0.79971565384 -5.4766336977e-08 0
          0.79978069642 -1.205707679e-07 0 0.79987911301 -1.4711131478e-07 0
          0.79999689149 -1.3087151215e-07 0 0.80011649228 -9.6247051747e-08 0
          0.80021930294 -6.4891877391e-08 0 0.80028874578 -4.6623216376e-08 0
          0.80031321281 0 0 0.85921450397 0.46134836201 0
          0.68858012802 0.43342217616 0 0.51943476254 0.34296249874 0
          0.38955644627 0.1682212579 0 0.33928061746 -0.02703379866 0
          0.39851603302 -0.22056588583 0 0.53544881813 -0.39081192172 0
          0.7088116988 -0.47537326422 0 0.8807553906 -0.49715484172 0
          0.78612947079 0.01106612204 0 0.78015342052 0.01833352205 0
          0.766848734 0.01955638655 0 0.75150262001 0.010692043592 0
          0.74554282475 -0.013467186921 0 0.75414036404 -0.037315233607 0
          0.77159266957 -0.045522007752 0 0.7864100811 -0.043784274702 0
          0.79356574679 -0.036386189374 0 0.80136418957 0.0045647376773 0
          0.79723199344 0.0038710391117 0 0.79258402179 0.0021576576781 0
          0.78792478732 -0.0032422059152 0 0.78647433988 -0.010794254623 0
          0.79078038386 -0.018189651494 0 0.79807551128 -0.023216112319 0
          0.80508616248 -0.024499026278 0 0.81128523651 -0.024752415846 0
          0.79374055344 -0.0018986194113 0 0.79294628454 -0.00080651847419 0
          0.79099154021 -0.0014397073487 0 0.78941919315 -0.0040653294427 0
          0.78976802399 -0.0086684872234 0 0.79250663699 -0.013045415438 0
          0.79698045559 -0.015053944786 0 0.80155113024 -0.0148315843 0
          0.80465045352 -0.012795686692 0 0.79718859937 -0.0020133850181 0
          0.79709303281 -0.0023966084729 0 0.7965896724 -0.0028565639769 0
          0.79574402344 -0.0044140366523 0 0.79609747204 -0.0071605873745 0
          0.79892451462 -0.0096010386829 0 0.8027456377 -0.010303812309 0
          0.80591896712 -0.0095230178558 0 0.8083387902 -0.0083891716782 0
          0.79540940244 -0.0014758913193 0 0.79554208093 -0.0018597812132 0
          0.79545559169 -0.0026055830983 0 0.79565023354 -0.0040350862399 0
          0.79676380121 -0.0059441509218 0 0.79881213171 -0.0074671957638 0
          0.8015431435 -0.0077980737575 0 0.80416460344 -0.0068845335421 0
          0.80607423201 -0.0051983229687 0 0.79673953765 -0.0010773250604 0
          0.79697420549 -0.0017253046348 0 0.79715361812 -0.0024521042589 0
          0.7973409562 -0.0035292412192 0 0.79822135026 -0.0049897701689 0
          0.80040895845 -0.0059957745542 0 0.80299424049 -0.0057718154888 0
          0.80507380451 -0.0045319223505 0 0.80645611835 -0.002742370418 0
          0.7966059572 -0.00039741585175 0 0.79678419676 -0.0012036475932 0
          0.79702512663 -0.0020294426576 0 0.79753238098 -0.0030781370954 0
          0.79866577041 -0.0042156347241 0 0.80045977145 -0.0048427154237 0
          0.80251958474 -0.0044352612085 0 0.804198532 -0.003068063946 0
          0.80512260339 -0.0011933678666 0 0.79704714728 0 0
          0.79719298089 -0.00083311939047 0 0.79745546861 -0.0017014340452 0
          0.79800763101 -0.0026644262661 0 0.79910187775 -0.0035859090399 0
          0.8007672228 -0.0039560834196 0 0.80254453416 -0.0033554991599 0
          0.80382748445 -0.0019005383464 0 0.8042393461 0 0
          0.8807553906 -0.49715484172 0 1.0481323681 -0.48542759179 0
          1.2122640322 -0.39545996042 0 1.338737355 -0.22777122868 0
          1.3838008829 -0.0066960974878 0 1.3299608983 0.21214588039 0
          1.1968305042 0.37399445973 0 1.0291275133 0.45638513291 0
          0.860738836 0.46067043653 0 0.79356574679 -0.036386189374 0
          0.80083251352 -0.041198092489 0 0.81579904236 -0.043275996318 0
          0.83310813707 -0.03464375393 0 0.84108143841 -0.015128097946 0
          0.83281058074 0.0039455278111 0 0.8156405176 0.01156859194 0
          0.80119303145 0.0084533125246 0 0.7945371639 0.0028355757152 0
          0.81128523651 -0.024752415846 0 0.81734058869 -0.025825891751 0
          0.82342182188 -0.024786565292 0 0.82939060371 -0.021120080842 0
          0.83252287445 -0.014598268155 0 0.83097804157 -0.0084869699116 0
          0.8265847443 -0.0059056953478 0 0.82191733342 -0.0063814024616 0
          0.81696032451 -0.0091587231047 0 0.80465045352 -0.012795686692 0
          0.80788894889 -0.015050220774 0 0.81297094942 -0.01618642762 0
          0.81808371163 -0.015244765919 0 0.82129753281 -0.012845485657 0
          0.8215768038 -0.011007482307 0 0.81985886101 -0.011638295392 0
          0.81789091663 -0.0151852357 0 0.81732139969 -0.020421997752 0
          0.8083387902 -0.0083891716782 0 0.81068688705 -0.0095101624897 0
          0.81395760408 -0.010756485233 0 0.81813979278 -0.011188704932 0
          0.82170437713 -0.010710365865 0 0.82377878266 -0.010952797634 0
          0.82522705733 -0.013477177493 0 0.82742015445 -0.018138928861 0
          0.83016350874 -0.023692619231 0 0.80607423201 -0.0051983229687 0
          0.80891109016 -0.0064454095063 0 0.81257806496 -0.0073764498318 0
          0.81683200459 -0.0079220549316 0 0.82103667219 -0.0081809585402 0
          0.82472655946 -0.0092176944497 0 0.8286676405 -0.012150431552 0
          0.83355341097 -0.017233565031 0 0.83950752472 -0.024714767767 0
          0.80645611835 -0.002742370418 0 0.8087711463 -0.0035233680121 0
          0.81224450024 -0.004413306816 0 0.81673537753 -0.0050258557759 0
          0.82162946399 -0.0055102969613 0 0.82685218411 -0.0066767253401 0
          0.83335758433 -0.0095750552524 0 0.8423613859 -0.014805431899 0
          0.85483734769 -0.022577106191 0 0.80512260339 -0.0011933678666 0
          0.80777496057 -0.0016193953921 0 0.81142688263 -0.002059373642 0
          0.81623878157 -0.0023994908929 0 0.82179873037 -0.0027613195482 0
          0.82841032042 -0.0034581279692 0 0.83737657758 -0.005484299204 0
          0.85113409818 -0.0088314861717 0 0.87206006025 -0.017596770639 0
          0.8042393461 0 0 0.80676382332 0 0
          0.81054735516 0 0 0.81569992799 0 0
          0.82186686837 0 0 0.82960627747 0 0
          0.84079845402 0 0 0.85986203911 0 0
          0.9 0 0 0.860738836 0.46067043653 0
          0.68953990743 0.43169869566 0 0.5199769031 0.34006350778 0
          0.38992531027 0.16430060415 0 0.33972176914 -0.031476923335 0
          0.39904496419 -0.22493859743 0 0.53574607128 -0.39461635949 0
          0.70852232959 -0.47833019317 0 0.87972122172 -0.49909307964 0
          0.7945371639 0.0028355757152 0 0.78691026221 0.0093703742422 0
          0.77160650987 0.010014684808 0 0.75400198249 0.00078047315164 0
          0.74563458986 -0.023467814747 0 0.75178791854 -0.047103435487 0
          0.7669067882 -0.054861845554 0 0.77965648648 -0.052526339095 0
          0.78511076535 -0.044430858627 0 0.81696032451 -0.0091587231047 0
          0.80975919268 -0.011208277786 0 0.80142640061 -0.014094247952 0
          0.7925417662 -0.02030285054 0 0.78655863411 -0.028164634227 0
          0.78632498591 -0.03533017471 0 0.78937795701 -0.039624195183 0
          0.79268628871 -0.039795600848 0 0.79580344255 -0.038720560819 0
          0.81732139969 -0.020421997752 0 0.81208700765 -0.022028530838 0
          0.80455737764 -0.024884841069 0 0.79652931168 -0.029024719703 0
          0.78992282243 -0.03419574774 0 0.7856832909 -0.038113470983 0
          0.78364229753 -0.038688590953 0 0.78255919057 -0.036279897562 0
          0.78113614468 -0.031556223364 0 0.83016350874 -0.023692619231 0
          0.82395668559 -0.02821125445 0 0.81573815375 -0.032187113882 0
          0.80579679998 -0.036136633947 0 0.79631483706 -0.039778254453 0
          0.78926000846 -0.041504177806 0 0.78386113411 -0.039955366824 0
          0.77916398576 -0.035741950906 0 0.7753356133 -0.030484648223 0
          0.83950752472 -0.024714767767 0 0.83177624062 -0.033522952652 0
          0.82122539025 -0.040641671476 0 0.80919430845 -0.046153618499 0
          0.79709935886 -0.049592568534 0 0.78582993854 -0.049984028192 0
          0.77607064903 -0.04646900594 0 0.76792660931 -0.039195828431 0
          0.76172153808 -0.028941046347 0 0.85483734769 -0.022577106191 0
          0.84439158676 -0.034168419034 0 0.83072276415 -0.04302086938 0
          0.81490193687 -0.049190081118 0 0.79868517192 -0.052503707799 0
          0.78358538485 -0.052092459962 0 0.76969363552 -0.047037306221 0
          0.7574201754 -0.037691521526 0 0.7477800295 -0.024775680442 0
          0.87206006025 -0.017596770639 0 0.85836670192 -0.044845670247 0
          0.83955484448 -0.061479453474 0 0.81973886096 -0.071400382666 0
          0.79936062597 -0.076080096075 0 0.77924243027 -0.0744512336 0
          0.76010610974 -0.065635175417 0 0.74194857668 -0.048026144391 0
          0.72854644863 -0.018812024689 0 0.9 0 0
          0.875 0 0 0.85 0 0
          0.825 0 0 0.8 0 0
          0.775 0 0 0.75 0 0
          0.725 0 0 0.7 0 0
          0.87972122172 -0.49909307964 0 1.0462267784 -0.48670151159 0
          1.2092272523 -0.39645757248 0 1.33481313 -0.22881519878 0
          1.3795297943 -0.0080025215604 0 1.3260041699 0.21071991801 0
          1.1936345527 0.37289950225 0 1.0267456343 0.45611755422 0
          0.85921450397 0.46134836201 0 0.78511076535 -0.044430858627 0
          0.79183137733 -0.047529377783 0 0.80639764758 -0.04761839556 0
          0.82345829027 -0.036817177748 0 0.83136629235 -0.015041013761 0
          0.82321568565 0.006302037166 0 0.80632169243 0.016108511585 0
          0.79227833768 0.014970841804 0 0.78612947079 0.01106612204 0
          0.79580344255 -0.038720560819 0 0.80145822845 -0.036623704187 0
          0.80730677052 -0.032152645344 0 0.81316645153 -0.024904613118 0
          0.81626421563 -0.01473127243 0 0.81473724539 -0.0049631777817 0
          0.81042610709 0.0012092784735 0 0.8059561311 0.0041745606719 0
          0.80136418957 0.0045647376773 0 0.78113614468 -0.031556223364 0
          0.78489070217 -0.029029278302 0 0.7905465765 -0.025431676801 0
          0.79611025139 -0.019854257145 0 0.79949038669 -0.012890179184 0
          0.79959588506 -0.006497307444 0 0.79741513074 -0.0025219453261 0
          0.79485291542 -0.0013841300688 0 0.79374055344 -0.0018986194113 0
          0.7753356133 -0.030484648223 0 0.78016599031 -0.025405276765 0
          0.78557748106 -0.020930410426 0 0.79121949761 -0.016178519735 0
          0.79529548911 -0.010802084798 0 0.79687420254 -0.006159436466 0
          0.79687522569 -0.0035408721596 0 0.79693676865 -0.0025553412818 0
          0.79718859937 -0.0020133850181 0 0.76172153808 -0.028941046347 0
          0.77042640698 -0.022370195845 0 0.77870099436 -0.017139273249 0
          0.78588860178 -0.01257033056 0 0.79109245693 -0.0082362050408 0
          0.7938279687 -0.0046985878008 0 0.7948897587 -0.0025791408954 0
          0.79523073985 -0.0016166852974 0 0.79540940244 -0.0014758913193 0
          0.7477800295 -0.024775680442 0 0.76183121213 -0.017359845458 0
          0.77341595042 -0.01240886564 0 0.78272545441 -0.0087187288716 0
          0.78921706741 -0.0055616424254 0 0.7929217858 -0.0031033746428 0
          0.79471285422 -0.0017611984194 0 0.79576940378 -0.0012813729849 0
          0.79673953765 -0.0010773250604 0 0.72854644863 -0.018812024689 0
          0.75193605055 -0.010165119554 0 0.76840376296 -0.0068786973624 0
          0.78011494032 -0.0044687588121 0 0.78799553224 -0.0027842383296 0
          0.7923941431 -0.0014417304858 0 0.79462768021 -0.00076928755735 0
          0.79583794699 -0.00047947539226 0 0.7966059572 -0.00039741585175 0
          0.7 0 0 0.74221691876 0 0
          0.76432040343 0 0 0.77843981081 0 0
          0.7876552973 0 0 0.79248605957 0 0
          0.79488993822 0 0 0.79613720592 0 0
          0.79704714728 0 0
        </DataArray>
        <DataArray type="Float64" Name="u_x" format="ascii" RangeMin="0.33928061746" RangeMax="1.3838008829">
          0.79704714728 0.79719298089 0.79745546861 0.79800763101 0.79910187775 0.8007672228
          0.80254453416 0.80382748445 0.8042393461 0.79793167643 0.79801828763 0.79829188949
          0.79879893875 0.79960571145 0.80066429857 0.80173550188 0.80251418133 0.8027961077
          0.79851756524 0.7985956898 0.79883409027 0.79924542872 0.79982441568 0.80050964295
          0.80116910727 0.80164552782 0.80181797034 0.79895207756 0.79901541339 0.79920436764
          0.7995131054 0.7999204797 0.80037572621 0.80079795184 0.80109730103 0.80120496918
          0.79925751623 0.79930619007 0.79944958402 0.79967665648 0.79996390563 0.80027235059
          0.80055017301 0.80074415372 0.80081366422 0.79946509001 0.79950229142 0.79961015792
          0.79977729027 0.79998345912 0.80019941745 0.80039009589 0.80052134966 0.80056792893
          0.799596986 0.79962591217 0.799709481 0.79983726329 0.79999219515 0.80015168924
          0.80029043991 0.8003850044 0.80041848383 0.79966975501 0.7996939771 0.79976356543
          0.79986913156 0.79999589443 0.80012507286 0.80023646573 0.80031188238 0.80033846115
          0.79969298586 0.79971565384 0.79978069642 0.79987911301 0.79999689149 0.80011649228
          0.80021930294 0.80028874578 0.80031321281 0.85921450397 0.68858012802 0.51943476254
          0.38955644627 0.33928061746 0.39851603302 0.53544881813 0.7088116988 0.8807553906
          0.78612947079 0.78015342052 0.766848734 0.75150262001 0.74554282475 0.75414036404
          0.77159266957 0.7864100811 0.79356574679 0.80136418957 0.79723199344 0.79258402179
          0.78792478732 0.78647433988 0.79078038386 0.79807551128 0.80508616248 0.81128523651
          0.79374055344 0.79294628454 0.79099154021 0.78941919315 0.78976802399 0.79250663699
          0.79698045559 0.80155113024 0.80465045352 0.79718859937 0.79709303281 0.7965896724
          0.79574402344 0.79609747204 0.79892451462 0.8027456377 0.80591896712 0.8083387902
          0.79540940244 0.79554208093 0.79545559169 0.79565023354 0.79676380121 0.79881213171
          0.8015431435 0.80416460344 0.80607423201 0.79673953765 0.79697420549 0.79715361812
          0.7973409562 0.79822135026 0.80040895845 0.80299424049 0.80507380451 0.80645611835
          0.7966059572 0.79678419676 0.79702512663 0.79753238098 0.79866577041 0.80045977145
          0.80251958474 0.804198532 0.80512260339 0.79704714728 0.79719298089 0.79745546861
          0.79800763101 0.79910187775 0.8007672228 0.80254453416 0.80382748445 0.8042393461
          0.8807553906 1.0481323681 1.2122640322 1.338737355 1.3838008829 1.3299608983
          1.1968305042 1.0291275133 0.860738836 0.79356574679 0.80083251352 0.81579904236
          0.83310813707 0.84108143841 0.83281058074 0.8156405176 0.80119303145 0.7945371639
          0.81128523651 0.81734058869 0.82342182188 0.82939060371 0.83252287445 0.83097804157
          0.8265847443 0.82191733342 0.81696032451 0.80465045352 0.80788894889 0.81297094942
          0.81808371163 0.82129753281 0.8215768038 0.81985886101 0.81789091663 0.81732139969
          0.8083387902 0.81068688705 0.81395760408 0.81813979278 0.82170437713 0.82377878266
          0.82522705733 0.82742015445 0.83016350874 0.80607423201 0.80891109016 0.81257806496
          0.81683200459 0.82103667219 0.82472655946 0.8286676405 0.83355341097 0.83950752472
          0.80645611835 0.8087711463 0.81224450024 0.81673537753 0.82162946399 0.82685218411
          0.83335758433 0.8423613859 0.85483734769 0.80512260339 0.80777496057 0.81142688263
          0.81623878157 0.82179873037 0.82841032042 0.83737657758 0.85113409818 0.87206006025
          0.8042393461 0.80676382332 0.81054735516 0.81569992799 0.82186686837 0.82960627747
          0.84079845402 0.85986203911 0.9 0.860738836 0.68953990743 0.5199769031
          0.38992531027 0.33972176914 0.39904496419 0.53574607128 0.70852232959 0.87972122172
          0.7945371639 0.78691026221 0.77160650987 0.75400198249 0.74563458986 0.75178791854
          0.7669067882 0.77965648648 0.78511076535 0.81696032451 0.80975919268 0.80142640061
          0.7925417662 0.78655863411 0.78632498591 0.78937795701 0.79268628871 0.79580344255
          0.81732139969 0.81208700765 0.80455737764 0.79652931168 0.78992282243 0.7856832909
          0.78364229753 0.78255919057 0.78113614468 0.83016350874 0.82395668559 0.81573815375
          0.80579679998 0.79631483706 0.78926000846 0.78386113411 0.77916398576 0.7753356133
          0.83950752472 0.83177624062 0.82122539025 0.80919430845 0.79709935886 0.78582993854
          0.77607064903 0.76792660931 0.76172153808 0.85483734769 0.84439158676 0.83072276415
          0.81490193687 0.79868517192 0.78358538485 0.76969363552 0.7574201754 0.7477800295
          0.87206006025 0.85836670192 0.83955484448 0.81973886096 0.79936062597 0.77924243027
          0.76010610974 0.74194857668 0.72854644863 0.9 0.875 0.85
          0.825 0.8 0.775 0.75 0.725 0.7
          0.87972122172 1.0462267784 1.2092272523 1.33481313 1.3795297943 1.3260041699
          1.1936345527 1.0267456343 0.85921450397 0.78511076535 0.79183137733 0.80639764758
          0.82345829027 0.83136629235 0.82321568565 0.80632169243 0.79227833768 0.78612947079
          0.79580344255 0.80145822845 0.80730677052 0.81316645153 0.81626421563 0.81473724539
          0.81042610709 0.8059561311 0.80136418957 0.78113614468 0.78489070217 0.7905465765
          0.79611025139 0.79949038669 0.79959588506 0.79741513074 0.79485291542 0.79374055344
          0.7753356133 0.78016599031 0.78557748106 0.79121949761 0.79529548911 0.79687420254
          0.79687522569 0.79693676865 0.79718859937 0.76172153808 0.77042640698 0.77870099436
          0.78588860178 0.79109245693 0.7938279687 0.7948897587 0.79523073985 0.79540940244
          0.7477800295 0.76183121213 0.77341595042 0.78272545441 0.78921706741 0.7929217858
          0.79471285422 0.79576940378 0.79673953765 0.72854644863 0.75193605055 0.76840376296
          0.78011494032 0.78799553224 0.7923941431 0.79462768021 0.79583794699 0.7966059572
          0.7 0.74221691876 0.76432040343 0.77843981081 0.7876552973 0.79248605957
          0.79488993822 0.79613720592 0.79704714728
        </DataArray>
        <DataArray type="Float64" Name="u_y" format="ascii" RangeMin="-0.49909307964" RangeMax="0.46134836201">
          0 -0.00083311939047 -0.0017014340452 -0.0026644262661 -0.0035859090399 -0.0039560834196
          -0.0033554991599 -0.0019005383464 0 0 -0.00067147879259 -0.0013282608716
          -0.001949418505 -0.0024148697121 -0.0025112014212 -0.002082643473 -0.0011735078643 0
          0 -0.00049999804358 -0.00097327060917 -0.0013728271233 -0.0016219721605 -0.0016237592815
          -0.0013192860435 -0.00074031375054 0 0 -0.00035975688611 -0.00068731303555
          -0.00094472634255 -0.0010831987966 -0.001056673644 -0.00084414273149 -0.00046902463431 0
          0 -0.00024775677281 -0.00046870721379 -0.00063384544119 -0.00071385371154 -0.00068516595043
          -0.0005407027313 -0.00029851875069 0 0 -0.00016312498312 -0.00030630162569
          -0.00040991383307 -0.00045601729218 -0.00043270516554 -0.00033855620462 -0.00018589052565 0
          0 -9.8054915638e-05 -0.00018334850915 -0.00024385690972 -0.00026947160071 -0.00025406823197
          -0.00019772331027 -0.00010819121537 0 0 -4.5933948678e-05 -8.5696939544e-05
          -0.00011358579982 -0.00012498913033 -0.00011736861689 -9.1058196239e-05 -4.9732509846e-05 0
          0 -5.4766336977e-08 -1.205707679e-07 -1.4711131478e-07 -1.3087151215e-07 -9.6247051747e-08
          -6.4891877391e-08 -4.6623216376e-08 0 0.46134836201 0.43342217616 0.34296249874
          0.1682212579 -0.02703379866 -0.22056588583 -0.39081192172 -0.47537326422 -0.49715484172
          0.01106612204 0.01833352205 0.01955638655 0.010692043592 -0.013467186921 -0.037315233607
          -0.045522007752 -0.043784274702 -0.036386189374 0.0045647376773 0.0038710391117 0.0021576576781
          -0.0032422059152 -0.010794254623 -0.018189651494 -0.023216112319 -0.024499026278 -0.024752415846
          -0.0018986194113 -0.00080651847419 -0.0014397073487 -0.0040653294427 -0.0086684872234 -0.013045415438
          -0.015053944786 -0.0148315843 -0.012795686692 -0.0020133850181 -0.0023966084729 -0.0028565639769
          -0.0044140366523 -0.0071605873745 -0.0096010386829 -0.010303812309 -0.0095230178558 -0.0083891716782
          -0.0014758913193 -0.0018597812132 -0.0026055830983 -0.0040350862399 -0.0059441509218 -0.0074671957638
          -0.0077980737575 -0.0068845335421 -0.0051983229687 -0.0010773250604 -0.0017253046348 -0.0024521042589
          -0.0035292412192 -0.0049897701689 -0.0059957745542 -0.0057718154888 -0.0045319223505 -0.002742370418
          -0.00039741585175 -0.0012036475932 -0.0020294426576 -0.0030781370954 -0.0042156347241 -0.0048427154237
          -0.0044352612085 -0.003068063946 -0.0011933678666 0 -0.00083311939047 -0.0017014340452
          -0.0026644262661 -0.0035859090399 -0.0039560834196 -0.0033554991599 -0.0019005383464 0
          -0.49715484172 -0.48542759179 -0.39545996042 -0.22777122868 -0.0066960974878 0.21214588039