<?xml version="1.0"?>
<VTKFile type="UnstructuredGrid" version="0.1" byte_order="LittleEndian" header_type="UInt32" compressor="vtkZLibDataCompressor">
  <UnstructuredGrid>
    <Piece NumberOfPoints="405" NumberOfCells="320">
      <PointData>
        <DataArray type="Float64" Name="p" format="ascii" RangeMin="-2.3904488473" RangeMax="2.3442564254">
          0.16507107681 0.27818328893 0.15998624946 0.042943791107 0.00039901132402 0.042690037872
          0.15757507713 0.275262468 0.15403306184 0.010610703929 0.0038776145902 0.0026665423739
          0.00031562960451 -0.0043345044007 0.0004012069417 0.0027115508819 0.0041471874839 0.0091758468889
          0.0027627097136 0.0059683918655 0.003088039644 0.0020414819288 0.00040056126872 0.0018366229555
          0.0025129642711 0.0056184657533 0.00062080844924 0.00018201880136 -0.0012042347075 -0.0012946591611
          -0.0019640663265 -0.0026836595373 -0.001960860947 -0.0014087107427 -0.0011547232437 -0.0008040038901
          0.00071210636869 0.00077813721755 0.00080936841191 0.0011785370446 0.0011155363018 0.0011213558383
          0.00061904034774 0.00073819155633 -5.5080537606e-05 0.00015544052554 -4.2266382228e-05 -0.00038214025406
          -0.00086761537362 -0.00099033125434 -0.00087229983987 -0.00047613342122 -5.1634038377e-05 -0.00026754711309
          0.00018583958716 9.3536457581e-05 0.00028658079896 0.0004686449335 0.00044048321157 0.00045634445343
          0.00023575578078 0.00010514662684 -8.8647851718e-05 6.052356325e-05 6.3244661867e-06 -0.00010601184956
          -0.00021274681895 -0.00022641449048 -0.0002196129104 -0.00014333184333 -6.3300577212e-06 -6.9627932925e-05
          0.00014647319601 -0.00011586880169 -0.00014982096065 -0.00012295588857 -0.00014120745043 -0.00013240786037
          -0.00014859173027 -0.00012355169519 0.00018194665994 -1.0423394308 -0.38541553785 -0.37676768522
          -0.82672850856 -2.3904488473 -0.82375104159 -0.37287077358 -0.3791035164 -1.0336328347
          -0.019541884607 -0.13830154004 -0.19354403949 -0.16119729315 0.0088005877207 -0.15896031233
          -0.18913794547 -0.133036509 -0.014124052993 -0.029602612557 0.0062519843535 -0.0047584158696
          -0.053934002063 -0.13076993063 -0.053570906294 -0.0045332113844 0.0059753208493 -0.030225000679
          -0.0017631837615 -0.044984501627 -0.048332437505 -0.019957175207 0.017887061446 -0.019867613818
          -0.047782893803 -0.044505036848 -0.0012766063882 0.003957848554 0.022261051496 -0.0028794895738
          -0.047866902839 -0.097146414334 -0.047825838853 -0.0028560213683 0.021255329155 0.0013090208123
          0.0071041921179 -0.013628209232 -0.0035342949375 0.015239049864 0.041678061404 0.015089268829
          -0.0038825578381 -0.014170912818 0.003811095575 0.023822886335 0.011097366327 -0.010904877668
          -0.032836015203 -0.051042016459 -0.03282383877 -0.011285726108 0.011021192408 0.016046349669
          -0.013076614621 -0.022182368882 -0.0040221913454 0.010888341487 0.015284907473 0.0103321224
          -0.0042808791486 -0.022611521533 -0.018180648086 0.16507107681 0.27818328893 0.15998624946
          0.042943791107 0.00039901132402 0.042690037872 0.15757507713 0.275262468 0.15403306184
          -1.0336328347 -0.29108613654 -0.32861867392 -0.30021084894 -0.23681603136 -0.14459384044
          -0.038617953015 0.014438096006 0.84567284817 -0.014124052993 -0.065005712742 -0.018149893988
          0.035979755693 0.092179935902 0.1453553684 0.19009068683 0.22564114278 0.16549534157
          -0.030225000679 0.0050792999606 0.0051841644174 0.018619157789 0.047434200922 0.077417047749
          0.096218165923 0.10441450461 0.146190431 -0.0012766063882 -0.0043207416558 0.019836629206
          0.043393039139 0.06591259345 0.088867718801 0.11091909264 0.13009508379 0.12018790481
          0.0013090208123 0.0174344052 0.017090816288 0.031989781763 0.054126025964 0.075618520124
          0.090735194081 0.091944541355 0.11624623995 0.003811095575 0.012525743453 0.028634951471
          0.043912506233 0.060539495656 0.078729229262 0.091691162032 0.10663470968 0.098302859252
          0.016046349669 0.011307838738 0.018678797211 0.035116373383 0.055335792688 0.074667573615
          0.090037473174 0.09018267725 0.093159829781 -0.018180648086 0.0051440116279 0.018464058458
          0.038028166748 0.056038989979 0.079580475165 0.089676001734 0.10474574709 0.093991755747
          0.15403306184 0.13545479677 0.086507727471 0.072214106047 0.067814729976 0.053668439655
          0.049390689745 -0.012376655968 0.049077766493 0.84567284817 0.21837338302 0.25196947431
          0.74917188244 2.3442564254 0.74720012022 0.26134073732 0.21442317937 0.82238430889
          0.16549534157 0.27784765299 0.32857111259 0.29529269667 0.1264104508 0.3022185678
          0.34086734749 0.29068537066 0.17160985059 0.146190431 0.11964982933 0.13369635331
          0.18076207796 0.25441984858 0.17098701645 0.11198223355 0.096260153092 0.1384401427
          0.12018790481 0.15581125648 0.16208118793 0.13992981865 0.10798647713 0.15155142003
          0.18748687649 0.18976338017 0.13683571404 0.11624623995 0.10808619516 0.1328049808
          0.17708176219 0.2227931078 0.16691856467 0.11602487293 0.085430342887 0.11595773018
          0.098302859252 0.11517031338 0.11500950285 0.10073610675 0.08203039909 0.11824729851
          0.1422661496 0.16129543943 0.128476415 0.093159829781 0.109269655 0.13357135149
          0.16503591502 0.18130088839 0.15260462549 0.13311590245 0.097712596947 0.10326686844
          0.093991755747 0.10035484282 0.10918091259 0.10952853551 0.11291926479 0.12494312608
          0.14679442319 0.1716173852 0.16420858963 0.049077766493 -0.042979301914 0.048747746375
          0.14148227311 0.13795119632 0.03652539513 -0.14506894202 -0.34275944129 -0.0012862102404
          0.82238430889 -0.0071961452294 -0.059574634953 -0.16437956573 -0.253019705 -0.31563802858
          -0.34212792525 -0.30209835209 -1.0423394308 0.17160985059 0.22883307815 0.18841728881
          0.13969824808 0.084694047546 0.028166502704 -0.025623590984 -0.071552707846 -0.019541884607
          0.1384401427 0.10058378555 0.097490616679 0.080747631294 0.04981342933 0.02045857977
          0.0067878792843 0.0064777055866 -0.029602612557 0.13683571404 0.13842983739 0.11335601971
          0.089219450828 0.066537894846 0.04328971359 0.018951651667 -0.0053177114408 -0.0017631837615
          0.11595773018 0.10110787771 0.10016762972 0.082970875368 0.058702325147 0.035236328147
          0.019594364495 0.020161325575 0.003957848554 0.128476415 0.11734476224 0.09967481451
          0.083957321122 0.066069963863 0.045622411402 0.03086802989 0.012838678284 0.0071041921179
          0.10326686844 0.116353391 0.10229529866 0.084421825975 0.062163789714 0.037293264391
          0.022633000032 0.012142313693 0.023822886335 0.16420858963 0.12172133707 0.10845738506
          0.083107535974 0.065012325225 0.036831769868 0.02239161088 0.0026388679732 -0.013076614621
          -0.0012862102404 -0.0024096233572 0.061263288365 0.081438558063 0.08568401784 0.090619463735
          0.10266879787 0.14862424814 0.16507107681
        </DataArray>
        <DataArray type="Float64" Name="u" NumberOfComponents="3" format="ascii" RangeMin="0.26360057454" RangeMax="1.3729539939">
          0.79697669577 0 0 0.79712433829 -0.00074871003067 0
          0.797405161 -0.0015329216023 0 0.79797902964 -0.0025355317633 0
          0.79904626003 -0.0036263537958 0 0.80077527332 -0.0041607216722 0
          0.80256346721 -0.0035807868664 0 0.8038524057 -0.002007099421 0
          0.8042473454 0 0 0.79787062375 0 0
          0.79800149936 -0.00069326058033 0 0.79826567936 -0.0013731542487 0
          0.79878654986 -0.0019957697559 0 0.79960021563 -0.0024471252936 0
          0.80067584792 -0.0025241437287 0 0.80175206972 -0.0020835987656 0
          0.80255552526 -0.0011773832947 0 0.80279156703 0 0
          0.79849874201 0 0 0.79857784254 -0.00050055065478 0
          0.79881913006 -0.00097133508467 0 0.7992342394 -0.0013804051372 0
          0.79981500847 -0.0016422523738 0 0.8005151072 -0.0016534375249 0
          0.80118455507 -0.0013497890425 0 0.80166943664 -0.00075513520953 0
          0.80183601269 0 0 0.79893922035 0 0
          0.79900227882 -0.0003663025095 0 0.79919398641 -0.00070238955666 0
          0.79950837775 -0.00095964472541 0 0.79992062707 -0.0010975310394 0
          0.80038221533 -0.001068237894 0 0.8008076574 -0.00084963336642 0
          0.80111196046 -0.00047323153127 0 0.80121753514 0 0
          0.7992464919 0 0 0.7992984467 -0.00024966025749 0
          0.79944240235 -0.00047200711279 0 0.7996709506 -0.0006408353776 0
          0.79996177953 -0.00072304726899 0 0.80027455518 -0.00069499698183 0
          0.80055709641 -0.00055037097938 0 0.80075583352 -0.00030372319268 0
          0.80082040959 0 0 0.79945967384 0 0
          0.79949522175 -0.00016584444326 0 0.79960529437 -0.00031083096229 0
          0.79977511319 -0.00041533331812 0 0.79998359966 -0.00046211923512 0
          0.80020272686 -0.00043851642885 0 0.80039509896 -0.00034270392145 0
          0.80052796123 -0.00018772467933 0 0.80057466467 0 0
          0.79959205475 0 0 0.7996212985 -9.8961896945e-05 0
          0.7997056478 -0.00018582099461 0 0.79983472493 -0.00024717549006 0
          0.79999169355 -0.00027309743122 0 0.80015327342 -0.00025740929579 0
          0.80029392556 -0.00020041546319 0 0.80039049887 -0.00011005809696 0
          0.80042271262 0 0 0.79966600887 0 0
          0.79969007314 -4.6781135674e-05 0 0.79976075098 -8.6863793305e-05 0
          0.79986762553 -0.00011518010777 0 0.79999590859 -0.00012681266468 0
          0.80012679167 -0.00011912282233 0 0.80023940997 -9.2467712309e-05 0
          0.8003159535 -5.0258978943e-05 0 0.80034175337 0 0
          0.79968948121 0 0 0.79971216363 3.8739350885e-07 0
          0.79977806725 3.0528715402e-07 0 0.79987759315 -7.4321521701e-08 0
          0.79999682212 -5.7418974772e-07 0 0.80011791637 -9.5564508268e-07 0
          0.80022191584 -1.0763141151e-06 0 0.80029252083 -8.4104606242e-07 0
          0.80031613249 0 0 0.83896058178 0.45966095404 0
          0.656087273 0.44632103448 0 0.4748626313 0.3526977995 0
          0.32523391189 0.17701083992 0 0.26219422719 -0.027192832213 0
          0.33463548731 -0.22961045696 0 0.49166708373 -0.40053267176 0
          0.67724680373 -0.48788592812 0 0.86143071485 -0.49485154745 0
          0.78966316298 0.011723111702 0 0.78566464041 0.016035261083 0
          0.77482620238 0.018157352693 0 0.76118823379 0.010192658805 0
          0.75477351556 -0.013682537968 0 0.76383867124 -0.037232188094 0
          0.77957841106 -0.044540630553 0 0.79193480664 -0.041931109029 0
          0.79713861628 -0.037501579392 0 0.80006912405 0.0051441982816 0
          0.79461205455 0.005887691146 0 0.78824490049 0.0035112537012 0
          0.78309863954 -0.0028938790605 0 0.78254419977 -0.010931572669 0
          0.78601169482 -0.0188105708 0 0.79385980804 -0.02482540579 0
          0.80262784501 -0.026727808821 0 0.81017101787 -0.025530781679 0
          0.7942689112 -0.00236509555 0 0.7943346452 -0.0018912396859 0
          0.79315260871 -0.0019604873504 0 0.79141077879 -0.0042031914575 0
          0.79102548633 -0.0087785136647 0 0.79453644254 -0.013118287522 0
          0.79919739776 -0.014731081385 0 0.80300959395 -0.013947307746 0
          0.80528903028 -0.012540082194 0 0.79691885876 -0.0016537713685 0
          0.79623680938 -0.001842982854 0 0.7954089351 -0.0026842865217 0
          0.79467160092 -0.0043310888837 0 0.79537431502 -0.0072496283477 0
          0.79789379694 -0.0098637524647 0 0.80165001647 -0.010649172989 0
          0.80519749327 -0.010225616186 0 0.80824434231 -0.0088741407749 0
          0.79539398379 -0.0017621835953 0 0.79588693844 -0.0021146818167 0
          0.79589071993 -0.0026406936154 0 0.7960329954 -0.0041311396998 0
          0.79699969758 -0.0060175087563 0 0.79923529651 -0.0075163540408 0
          0.80205327834 -0.0078835299822 0 0.80460586756 -0.0067352152879 0
          0.80621092716 -0.0049918578258 0 0.79671319374 -0.00086011580391 0
          0.79680162056 -0.0016627189109 0 0.79690994725 -0.0024961166473 0
          0.79711028488 -0.0035818513131 0 0.79805080842 -0.0050542128804 0
          0.80021350728 -0.0060625712139 0 0.80283082838 -0.0058331708305 0
          0.80500220254 -0.0046866675107 0 0.80662436696 -0.0029950917499 0
          0.79631860257 -0.00049160353073 0 0.79681107465 -0.0012410239835 0
          0.79702855607 -0.0020362456009 0 0.79757111127 -0.0030687172569 0
          0.79869440202 -0.0042726716406 0 0.80053141465 -0.0049465060861 0
          0.80260322383 -0.0045141073528 0 0.80430063163 -0.0030806526348 0
          0.80503035785 -0.0011202958876 0 0.79697669577 0 0
          0.79712433829 -0.00074871003067 0 0.797405161 -0.0015329216023 0
          0.79797902964 -0.0025355317633 0 0.79904626003 -0.0036263537958 0
          0.80077527332 -0.0041607216722 0 0.80256346721 -0.0035807868664 0
          0.8038524057 -0.002007099421 0 0.8042473454 0 0
          0.86143071485 -0.49485154745 0 1.0307705569 -0.49367465923 0
          1.1988173318 -0.40078507647 0 1.3266425338 -0.22827264909 0
          1.3729477562 -0.0041386216919 0 1.3179063947 0.21771520983 0
          1.1836781023 0.38361870586 0 1.0128508682 0.46738112672 0
          0.84266889192 0.46014426427 0 0.79713861628 -0.037501579392 0
          0.80462720918 -0.0399270062 0 0.81851372024 -0.042069473598 0
          0.83518592407 -0.034150158732 0 0.84263679886 -0.015459982582 0
          0.83461800117 0.0027147346312 0 0.81788671357 0.0095001990244 0
          0.80443142357 0.0062461400125 0 0.79767335055 0.0029562413453 0
          0.81017101787 -0.025530781679 0 0.81638816667 -0.027708820702 0
          0.82354956848 -0.026380873179 0 0.82996142001 -0.021897730461 0
          0.83329834642 -0.014648184816 0 0.83156548897 -0.0078407231586 0
          0.82680249457 -0.0045040593729 0 0.82115887471 -0.0047073899975 0
          0.81598247059 -0.0085574762837 0 0.80528903028 -0.012540082194 0
          0.80833137759 -0.014255192379 0 0.81292925582 -0.015841377413 0
          0.81821187124 -0.015357928658 0 0.821514529 -0.013058931914 0
          0.82174617018 -0.011314312591 0 0.81987145853 -0.012389001481 0
          0.81834476152 -0.016393507246 0 0.81805696903 -0.021280808541 0
          0.80824434231 -0.0088741407749 0 0.81089033488 -0.01025249431 0
          0.81444498268 -0.011116045332 0 0.81849904042 -0.011322550414 0
          0.82209438182 -0.010795828215 0 0.82419104081 -0.011012042125 0
          0.82580501848 -0.013374275155 0 0.82788408044 -0.017753688191 0
          0.83023771722 -0.023461834964 0 0.80621092716 -0.0049918578258 0
          0.80888308311 -0.0062362562477 0 0.81256554791 -0.0074408210323 0
          0.81703590238 -0.0080451605098 0 0.82128969824 -0.008309965114 0
          0.82501297117 -0.0093508295188 0 0.8288864507 -0.012369832582 0
          0.83375791307 -0.017726050266 0 0.84011022669 -0.025521091712 0
          0.80662436696 -0.0029950917499 0 0.80904701557 -0.003705184841 0
          0.81253685474 -0.0044673691294 0 0.81700233923 -0.0050622431109 0
          0.82198202889 -0.0055708163263 0 0.82723851259 -0.006747216184 0
          0.83388038385 -0.0096762651242 0 0.84312849709 -0.014992231632 0
          0.85538984057 -0.022670525839 0 0.80503035785 -0.0011202958876 0
          0.80789691578 -0.001588794874 0 0.81153965843 -0.0021307729928 0
          0.81647842509 -0.0024293731173 0 0.82211828953 -0.0028128434495 0
          0.8287567498 -0.0035123058591 0 0.8379372101 -0.0055345974767 0
          0.85170907424 -0.0090626777474 0 0.8736703266 -0.018058989394 0
          0.8042473454 0 0 0.80610330701 0 0
          0.81055787657 0 0 0.81576119674 0 0
          0.82210234537 0 0 0.82990956982 0 0
          0.84107479056 0 0 0.86067289382 0 0
          0.9 0 0 0.84266889192 0.46014426427 0
          0.66106188657 0.44526024747 0 0.4802925803 0.35025479466 0
          0.32905670623 0.17373083661 0 0.26438685188 -0.031288767969 0
          0.33575194408 -0.23458225354 0 0.4913218414 -0.4065156747 0
          0.6764038882 -0.49429555237 0 0.86109524746 -0.4995381139 0
          0.79767335055 0.0029562413453 0 0.79196168081 0.006521747421 0
          0.77918332324 0.008117791062 0 0.76362046255 -0.00011136039384 0
          0.75509351352 -0.02381375243 0 0.7617973328 -0.046739827318 0
          0.77506041257 -0.053219659222 0 0.78500799201 -0.049967193298 0
          0.78829485155 -0.045115186362 0 0.81598247059 -0.0085574762837 0
          0.80737394949 -0.0092781207347 0 0.79735435419 -0.012915060283 0
          0.78789931965 -0.020104062084 0 0.78262217317 -0.028470332236 0
          0.78136041664 -0.036240803455 0 0.78496877688 -0.041726427909 0
          0.79019748999 -0.042483824158 0 0.79458914762 -0.039762615747 0
          0.81805696903 -0.021280808541 0 0.81369506653 -0.023333025123 0
          0.80674980194 -0.025638513673 0 0.79852398235 -0.029475967462 0
          0.79121354479 -0.034606298917 0 0.78779221823 -0.038443820297 0
          0.78586474513 -0.038451480198 0 0.78371519842 -0.035441698007 0
          0.78146998157 -0.031588547885 0 0.83023771722 -0.023461834964 0
          0.82339521761 -0.028064826912 0 0.81491042139 -0.032404459199 0
          0.8049021444 -0.0363897504 0 0.79562008986 -0.040258374884 0
          0.78807388029 -0.042148317934 0 0.78240358178 -0.040788072556 0
          0.7781920374 -0.036993009769 0 0.7749178102 -0.031190533999 0
          0.84011022669 -0.025521091712 0 0.8324486575 -0.034039785482 0
          0.82179760643 -0.041066817629 0 0.8096886197 -0.046710994093 0
          0.79738314281 -0.050035973685 0 0.78622015075 -0.050514079453 0
          0.77650537741 -0.046975471626 0 0.76801585529 -0.039298032959 0
          0.76119457542 -0.029271501665 0 0.85538984057 -0.022670525839 0
          0.84474727057 -0.034732939452 0 0.83095882407 -0.043582182823 0
          0.81486089218 -0.04980187243 0 0.79857191296 -0.053197392265 0
          0.78327106681 -0.052790603856 0 0.76902965657 -0.047674458522 0
          0.75679043683 -0.038588246496 0 0.74728325262 -0.025409747985 0
          0.8736703266 -0.018058989394 0 0.85888142004 -0.045584412318 0
          0.83985314606 -0.06199265515 0 0.82001328694 -0.071935044839 0
          0.79950030948 -0.076665934566 0 0.77916771846 -0.075284705711 0
          0.75992518079 -0.066429804777 0 0.74145234826 -0.048879983509 0
          0.72644183257 -0.018957706678 0 0.9 0 0
          0.875 0 0 0.85 0 0
          0.825 0 0 0.8 0 0
          0.775 0 0 0.75 0 0
          0.725 0 0 0.7 0 0
          0.86109524746 -0.4995381139 0 1.0300204569 -0.49820308141 0
          1.1965501018 -0.40536811685 0 1.3230792128 -0.23267541789 0
          1.3685119321 -0.0084678482102 0 1.3132587356 0.21331972538 0
          1.1791916413 0.37999812663 0 1.0083001395 0.46555765864 0
          0.83896058178 0.45966095404 0 0.78829485155 -0.045115186362 0
          0.79508927709 -0.045821651334 0 0.8085578912 -0.04611367463 0
          0.82513688623 -0.036252458963 0 0.83283403514 -0.015419512675 0
          0.82526325765 0.0051198063579 0 0.80904289962 0.014279608422 0
          0.79608078807 0.01317479909 0 0.78966316298 0.011723111702 0
          0.79458914762 -0.039762615747 0 0.80036934877 -0.03880774616 0
          0.80732539738 -0.034000682056 0 0.81360520484 -0.025839905413 0
          0.81686495961 -0.014856398647 0 0.81509883848 -0.0043158089286 0
          0.81032038064 0.0026756768663 0 0.80477738596 0.0058948305074 0
          0.80006912405 0.0051441982816 0 0.78146998157 -0.031588547885 0
          0.78507989315 -0.028294581923 0 0.79019028832 -0.025112414392 0
          0.79593914422 -0.019983386081 0 0.79943652294 -0.013075771293 0
          0.79950746421 -0.0067292611356 0 0.79720772842 -0.0031795402227 0
          0.79518188009 -0.0024324891299 0 0.7942689112 -0.00236509555 0
          0.7749178102 -0.031190533999 0 0.77994044731 -0.026495013429 0
          0.78576248891 -0.021496564758 0 0.79126579919 -0.016437390348 0
          0.79535777157 -0.010938296724 0 0.79697569691 -0.0061938447236 0
          0.79714080243 -0.0033214605967 0 0.79694362336 -0.0019262011716 0
          0.79691885876 -0.0016537713685 0 0.76119457542 -0.029271501665 0
          0.76995515606 -0.022305984369 0 0.77819561057 -0.017292120202 0
          0.78572370125 -0.012755431749 0 0.79093786813 -0.0083456759446 0
          0.79376087264 -0.0047281142909 0 0.79464997022 -0.0026780187979 0
          0.79504168902 -0.0019299519616 0 0.79539398379 -0.0017621835953 0
          0.74728325262 -0.025409747985 0 0.76140708842 -0.017949528505 0
          0.7732245151 -0.012580818699 0 0.78255716689 -0.0088597037276 0
          0.78913939175 -0.0056575664528 0 0.79289164802 -0.0031406011684 0
          0.79478101106 -0.001804174274 0 0.79587617546 -0.0011390756334 0
          0.79671319374 -0.00086011580391 0 0.72644183257 -0.018957706678 0
          0.75139812301 -0.010315808928 0 0.76779378163 -0.0069963320986 0
          0.77995052124 -0.0045323796711 0 0.78780853066 -0.0028236745485 0
          0.79235491158 -0.0014385924972 0 0.79451103998 -0.00075275062136 0
          0.79581911416 -0.0005229701917 0 0.79631860257 -0.00049160353073 0
          0.7 0 0 0.73987110046 0 0
          0.76384053593 0 0 0.7778655803 0 0
          0.78755154277 0 0 0.79217447725 0 0
          0.7947223898 0 0 0.79531605542 0 0
          0.79697669577 0 0
        </DataArray>
        <DataArray type="Float64" Name="u_x" format="ascii" RangeMin="0.26219422719" RangeMax="1.3729477562">
          0.79697669577 0.79712433829 0.797405161 0.79797902964 0.79904626003 0.80077527332
          0.80256346721 0.8038524057 0.8042473454 0.79787062375 0.79800149936 0.79826567936
          0.79878654986 0.79960021563 0.80067584792 0.80175206972 0.80255552526 0.80279156703
          0.79849874201 0.79857784254 0.79881913006 0.7992342394 0.79981500847 0.8005151072
          0.80118455507 0.80166943664 0.80183601269 0.79893922035 0.79900227882 0.79919398641
          0.79950837775 0.79992062707 0.80038221533 0.8008076574 0.80111196046 0.80121753514
          0.7992464919 0.7992984467 0.79944240235 0.7996709506 0.79996177953 0.80027455518
          0.80055709641 0.80075583352 0.80082040959 0.79945967384 0.79949522175 0.79960529437
          0.79977511319 0.79998359966 0.80020272686 0.80039509896 0.80052796123 0.80057466467
          0.79959205475 0.7996212985 0.7997056478 0.79983472493 0.79999169355 0.80015327342
          0.80029392556 0.80039049887 0.80042271262 0.79966600887 0.79969007314 0.79976075098
          0.79986762553 0.79999590859 0.80012679167 0.80023940997 0.8003159535 0.80034175337
          0.79968948121 0.79971216363 0.79977806725 0.79987759315 0.79999682212 0.80011791637
          0.80022191584 0.80029252083 0.80031613249 0.83896058178 0.656087273 0.4748626313
          0.32523391189 0.26219422719 0.33463548731 0.49166708373 0.67724680373 0.86143071485
          0.78966316298 0.78566464041 0.77482620238 0.76118823379 0.75477351556 0.76383867124
          0.77957841106 0.79193480664 0.79713861628 0.80006912405 0.79461205455 0.78824490049
          0.78309863954 0.78254419977 0.78601169482 0.79385980804 0.80262784501 0.81017101787
          0.7942689112 0.7943346452 0.79315260871 0.79141077879 0.79102548633 0.79453644254
          0.79919739776 0.80300959395 0.80528903028 0.79691885876 0.79623680938 0.7954089351
          0.79467160092 0.79537431502 0.79789379694 0.80165001647 0.80519749327 0.80824434231
          0.79539398379 0.79588693844 0.79589071993 0.7960329954 0.79699969758 0.79923529651
          0.80205327834 0.80460586756 0.80621092716 0.79671319374 0.79680162056 0.79690994725
          0.79711028488 0.79805080842 0.80021350728 0.80283082838 0.80500220254 0.80662436696
          0.79631860257 0.79681107465 0.79702855607 0.79757111127 0.79869440202 0.80053141465
          0.80260322383 0.80430063163 0.80503035785 0.79697669577 0.79712433829 0.797405161
          0.79797902964 0.79904626003 0.80077527332 0.80256346721 0.8038524057 0.8042473454
          0.86143071485 1.0307705569 1.1988173318 1.3266425338 1.3729477562 1.3179063947
          1.1836781023 1.0128508682 0.84266889192 0.79713861628 0.80462720918 0.81851372024
          0.83518592407 0.84263679886 0.83461800117 0.81788671357 0.80443142357 0.79767335055
          0.81017101787 0.81638816667 0.82354956848 0.82996142001 0.83329834642 0.83156548897
          0.82680249457 0.82115887471 0.81598247059 0.80528903028 0.80833137759 0.81292925582
          0.81821187124 0.821514529 0.82174617018 0.81987145853 0.81834476152 0.81805696903
          0.80824434231 0.81089033488 0.81444498268 0.81849904042 0.82209438182 0.82419104081
          0.82580501848 0.82788408044 0.83023771722 0.80621092716 0.80888308311 0.81256554791
          0.81703590238 0.82128969824 0.82501297117 0.8288864507 0.83375791307 0.84011022669
          0.80662436696 0.80904701557 0.81253685474 0.81700233923 0.82198202889 0.82723851259
          0.83388038385 0.84312849709 0.85538984057 0.80503035785 0.80789691578 0.81153965843
          0.81647842509 0.82211828953 0.8287567498 0.8379372101 0.85170907424 0.8736703266
          0.8042473454 0.80610330701 0.81055787657 0.81576119674 0.82210234537 0.82990956982
          0.84107479056 0.86067289382 0.9 0.84266889192 0.66106188657 0.4802925803
          0.32905670623 0.26438685188 0.33575194408 0.4913218414 0.6764038882 0.86109524746
          0.79767335055 0.79196168081 0.77918332324 0.76362046255 0.75509351352 0.7617973328
          0.77506041257 0.78500799201 0.78829485155 0.81598247059 0.80737394949 0.79735435419
          0.78789931965 0.78262217317 0.78136041664 0.78496877688 0.79019748999 0.79458914762
          0.81805696903 0.81369506653 0.80674980194 0.79852398235 0.79121354479 0.78779221823
          0.78586474513 0.78371519842 0.78146998157 0.83023771722 0.82339521761 0.81491042139
          0.8049021444 0.79562008986 0.78807388029 0.78240358178 0.7781920374 0.7749178102
          0.84011022669 0.8324486575 0.82179760643 0.8096886197 0.79738314281 0.78622015075
          0.77650537741 0.76801585529 0.76119457542 0.85538984057 0.84474727057 0.83095882407
          0.81486089218 0.79857191296 0.78327106681 0.76902965657 0.75679043683 0.74728325262
          0.8736703266 0.85888142004 0.83985314606 0.82001328694 0.79950030948 0.77916771846
          0.75992518079 0.74145234826 0.72644183257 0.9 0.875 0.85
          0.825 0.8 0.775 0.75 0.725 0.7
          0.86109524746 1.0300204569 1.1965501018 1.3230792128 1.3685119321 1.3132587356
          1.1791916413 1.0083001395 0.83896058178 0.78829485155 0.79508927709 0.8085578912
          0.82513688623 0.83283403514 0.82526325765 0.80904289962 0.79608078807 0.78966316298
          0.79458914762 0.80036934877 0.80732539738 0.81360520484 0.81686495961 0.81509883848
          0.81032038064 0.80477738596 0.80006912405 0.78146998157 0.78507989315 0.79019028832
          0.79593914422 0.79943652294 0.79950746421 0.79720772842 0.79518188009 0.7942689112
          0.7749178102 0.77994044731 0.78576248891 0.79126579919 0.79535777157 0.79697569691
          0.79714080243 0.79694362336 0.79691885876 0.76119457542 0.76995515606 0.77819561057
          0.78572370125 0.79093786813 0.79376087264 0.79464997022 0.79504168902 0.79539398379
          0.74728325262 0.76140708842 0.7732245151 0.78255716689 0.78913939175 0.79289164802
          0.79478101106 0.79587617546 0.79671319374 0.72644183257 0.75139812301 0.76779378163
          0.77995052124 0.78780853066 0.79235491158 0.79451103998 0.79581911416 0.79631860257
          0.7 0.73987110046 0.76384053593 0.7778655803 0.78755154277 0.79217447725
          0.7947223898 0.79531605542 0.79697669577
        </DataArray>
        <DataArray type="Float64" Name="u_y" format="ascii" RangeMin="-0.4995381139" RangeMax="0.46738112672">
          0 -0.00074871003067 -0.0015329216023 -0.0025355317633 -0.0036263537958 -0.0041607216722
          -0.0035807868664 -0.002007099421 0 0 -0.00069326058033 -0.0013731542487
          -0.0019957697559 -0.0024471252936 -0.0025241437287 -0.0020835987656 -0.0011773832947 0
          0 -0.00050055065478 -0.00097133508467 -0.0013804051372 -0.0016422523738 -0.0016534375249
          -0.0013497890425 -0.00075513520953 0 0 -0.0003663025095 -0.00070238955666
          -0.00095964472541 -0.0010975310394 -0.001068237894 -0.00084963336642 -0.00047323153127 0
          0 -0.00024966025749 -0.00047200711279 -0.0006408353776 -0.00072304726899 -0.00069499698183
          -0.00055037097938 -0.00030372319268 0 0 -0.00016584444326 -0.00031083096229
          -0.00041533331812 -0.00046211923512 -0.00043851642885 -0.00034270392145 -0.00018772467933 0
          0 -9.8961896945e-05 -0.00018582099461 -0.00024717549006 -0.00027309743122 -0.00025740929579
          -0.00020041546319 -0.00011005809696 0 0 -4.6781135674e-05 -8.6863793305e-05
          -0.00011518010777 -0.00012681266468 -0.00011912282233 -9.2467712309e-05 -5.0258978943e-05 0
          0 3.8739350885e-07 3.0528715402e-07 -7.4321521701e-08 -5.7418974772e-07 -9.5564508268e-07
          -1.0763141151e-06 -8.4104606242e-07 0 0.45966095404 0.44632103448 0.3526977995
          0.17701083992 -0.027192832213 -0.22961045696 -0.40053267176 -0.48788592812 -0.49485154745
          0.011723111702 0.016035261083 0.018157352693 0.010192658805 -0.013682537968 -0.037232188094
          -0.044540630553 -0.041931109029 -0.037501579392 0.0051441982816 0.005887691146 0.0035112537012
          -0.0028938790605 -0.010931572669 -0.0188105708 -0.02482540579 -0.026727808821 -0.025530781679
          -0.00236509555 -0.0018912396859 -0.0019604873504 -0.0042031914575 -0.0087785136647 -0.013118287522