# vtk DataFile Version 5.1
vtk output
ASCII
DATASET UNSTRUCTURED_GRID
POINTS 322 double
0 0 0 0.03125 0 0 0 0.03125 0 
0.03125 0.03125 0 0.0625 0 0 0.09375 0 0 
0.0625 0.03125 0 0.09375 0.03125 0 0.125 0 0 
0.15625 0 0 0.125 0.03125 0 0.15625 0.03125 0 
0.1875 0 0 0.25 0 0 0.1875 0.0625 0 
0.25 0.0625 0 0.3125 0 0 0.3125 0.0625 0 
0.375 0 0 0.375 0.0625 0 0.4375 0 0 
0.4375 0.0625 0 0.5 0 0 0.5 0.0625 0 
0.5625 0 0 0.5625 0.0625 0 0.625 0 0 
0.625 0.0625 0 0.6875 0 0 0.6875 0.0625 0 
0.75 0 0 0.75 0.0625 0 0.8125 0 0 
0.8125 0.0625 0 0.875 0 0 0.875 0.0625 0 
0.9375 0 0 0.9375 0.0625 0 1 0 0 
1 0.0625 0 0 0.0625 0 0.03125 0.0625 0 
0 0.09375 0 0.03125 0.09375 0 0.0625 0.0625 0 
0.09375 0.0625 0 0.0625 0.09375 0 0.09375 0.09375 0 
0.125 0.0625 0 0.15625 0.0625 0 0.125 0.09375 0 
0.15625 0.09375 0 0.1875 0.125 0 0.25 0.125 0 
0.3125 0.125 0 0.375 0.125 0 0.4375 0.125 0 
0.5 0.125 0 0.5625 0.125 0 0.625 0.125 0 
0.6875 0.125 0 0.75 0.125 0 0.8125 0.125 0 
0.875 0.125 0 0.9375 0.125 0 1 0.125 0 
0 0.125 0 0.03125 0.125 0 0 0.15625 0 
0.03125 0.15625 0 0.0625 0.125 0 0.09375 0.125 0 
0.0625 0.15625 0 0.09375 0.15625 0 0.125 0.125 0 
0.15625 0.125 0 0.125 0.15625 0 0.15625 0.15625 0 
0.1875 0.1875 0 0.25 0.1875 0 0.3125 0.1875 0 
0.375 0.1875 0 0.4375 0.1875 0 0.5 0.1875 0 
0.5625 0.1875 0 0.625 0.1875 0 0.6875 0.1875 0 
0.75 0.1875 0 0.8125 0.1875 0 0.875 0.1875 0 
0.9375 0.1875 0 1 0.1875 0 0 0.1875 0 
0.0625 0.1875 0 0 0.25 0 0.0625 0.25 0 
0.125 0.1875 0 0.125 0.25 0 0.1875 0.25 0 
0.25 0.25 0 0.3125 0.25 0 0.375 0.25 0 
0.4375 0.25 0 0.5 0.25 0 0.5625 0.25 0 
0.625 0.25 0 0.6875 0.25 0 0.75 0.25 0 
0.8125 0.25 0 0.875 0.25 0 0.9375 0.25 0 
1 0.25 0 0 0.3125 0 0.0625 0.3125 0 
0.125 0.3125 0 0.1875 0.3125 0 0.25 0.3125 0 
0.3125 0.3125 0 0.375 0.3125 0 0.4375 0.3125 0 
0.5 0.3125 0 0.5625 0.3125 0 0.625 0.3125 0 
0.6875 0.3125 0 0.75 0.3125 0 0.8125 0.3125 0 
0.875 0.3125 0 0.9375 0.3125 0 1 0.3125 0 
0 0.375 0 0.0625 0.375 0 0.125 0.375 0 
0.1875 0.375 0 0.25 0.375 0 0.3125 0.375 0 
0.375 0.375 0 0.4375 0.375 0 0.5 0.375 0 
0.5625 0.375 0 0.625 0.375 0 0.6875 0.375 0 
0.75 0.375 0 0.8125 0.375 0 0.875 0.375 0 
0.9375 0.375 0 1 0.375 0 0 0.4375 0 
0.0625 0.4375 0 0.125 0.4375 0 0.1875 0.4375 0 
0.25 0.4375 0 0.3125 0.4375 0 0.375 0.4375 0 
0.4375 0.4375 0 0.5 0.4375 0 0.5625 0.4375 0 
0.625 0.4375 0 0.6875 0.4375 0 0.75 0.4375 0 
0.8125 0.4375 0 0.875 0.4375 0 0.9375 0.4375 0 
1 0.4375 0 0 0.5 0 0.0625 0.5 0 
0.125 0.5 0 0.1875 0.5 0 0.25 0.5 0 
0.3125 0.5 0 0.375 0.5 0 0.4375 0.5 0 
0.5 0.5 0 0.5625 0.5 0 0.625 0.5 0 
0.6875 0.5 0 0.75 0.5 0 0.8125 0.5 0 
0.875 0.5 0 0.9375 0.5 0 1 0.5 0 
0 0.5625 0 0.0625 0.5625 0 0.125 0.5625 0 
0.1875 0.5625 0 0.25 0.5625 0 0.3125 0.5625 0 
0.375 0.5625 0 0.4375 0.5625 0 0.5 0.5625 0 
0.5625 0.5625 0 0.625 0.5625 0 0.6875 0.5625 0 
0.75 0.5625 0 0.8125 0.5625 0 0.875 0.5625 0 
0.9375 0.5625 0 1 0.5625 0 0 0.625 0 
0.0625 0.625 0 0.125 0.625 0 0.1875 0.625 0 
0.25 0.625 0 0.3125 0.625 0 0.375 0.625 0 
0.4375 0.625 0 0.5 0.625 0 0.5625 0.625 0 
0.625 0.625 0 0.6875 0.625 0 0.75 0.625 0 
0.8125 0.625 0 0.875 0.625 0 0.9375 0.625 0 
1 0.625 0 0 0.6875 0 0.0625 0.6875 0 
0.125 0.6875 0 0.1875 0.6875 0 0.25 0.6875 0 
0.3125 0.6875 0 0.375 0.6875 0 0.4375 0.6875 0 
0.5 0.6875 0 0.5625 0.6875 0 0.625 0.6875 0 
0.6875 0.6875 0 0.75 0.6875 0 0.8125 0.6875 0 
0.875 0.6875 0 0.9375 0.6875 0 1 0.6875 0 
0 0.75 0 0.0625 0.75 0 0.125 0.75 0 
0.1875 0.75 0 0.25 0.75 0 0.3125 0.75 0 
0.375 0.75 0 0.4375 0.75 0 0.5 0.75 0 
0.5625 0.75 0 0.625 0.75 0 0.6875 0.75 0 
0.75 0.75 0 0.8125 0.75 0 0.875 0.75 0 
0.9375 0.75 0 1 0.75 0 0 0.8125 0 
0.0625 0.8125 0 0.125 0.8125 0 0.1875 0.8125 0 
0.25 0.8125 0 0.3125 0.8125 0 0.375 0.8125 0 
0.4375 0.8125 0 0.5 0.8125 0 0.5625 0.8125 0 
0.625 0.8125 0 0.6875 0.8125 0 0.75 0.8125 0 
0.8125 0.8125 0 0.875 0.8125 0 0.9375 0.8125 0 
1 0.8125 0 0 0.875 0 0.0625 0.875 0 
0.125 0.875 0 0.1875 0.875 0 0.25 0.875 0 
0.3125 0.875 0 0.375 0.875 0 0.4375 0.875 0 
0.5 0.875 0 0.5625 0.875 0 0.625 0.875 0 
0.6875 0.875 0 0.75 0.875 0 0.8125 0.875 0 
0.875 0.875 0 0.9375 0.875 0 1 0.875 0 
0 0.9375 0 0.0625 0.9375 0 0.125 0.9375 0 
0.1875 0.9375 0 0.25 0.9375 0 0.3125 0.9375 0 
0.375 0.9375 0 0.4375 0.9375 0 0.5 0.9375 0 
0.5625 0.9375 0 0.625 0.9375 0 0.6875 0.9375 0 
0.75 0.9375 0 0.8125 0.9375 0 0.875 0.9375 0 
0.9375 0.9375 0 1 0.9375 0 0 1 0 
0.0625 1 0 0.125 1 0 0.1875 1 0 
0.25 1 0 0.3125 1 0 0.375 1 0 
0.4375 1 0 0.5 1 0 0.5625 1 0 
0.625 1 0 0.6875 1 0 0.75 1 0 
0.8125 1 0 0.875 1 0 0.9375 1 0 
1 1 0 0.1875 0.03125 0 0.1875 0.09375 0 
0.1875 0.15625 0 0.03125 0.1875 0 0.09375 0.1875 0 
0.15625 0.1875 0 
CELLS 284 1132
OFFSETS vtktypeint64
0 4 8 12 16 20 24 28 32 
36 40 44 48 52 56 60 64 68 
72 76 80 84 88 92 96 100 104 
108 112 116 120 124 128 132 136 140 
144 148 152 156 160 164 168 172 176 
180 184 188 192 196 200 204 208 212 
216 220 224 228 232 236 240 244 248 
252 256 260 264 268 272 276 280 284 
288 292 296 300 304 308 312 316 320 
324 328 332 336 340 344 348 352 356 
360 364 368 372 376 380 384 388 392 
396 400 404 408 412 416 420 424 428 
432 436 440 444 448 452 456 460 464 
468 472 476 480 484 488 492 496 500 
504 508 512 516 520 524 528 532 536 
540 544 548 552 556 560 564 568 572 
576 580 584 588 592 596 600 604 608 
612 616 620 624 628 632 636 640 644 
648 652 656 660 664 668 672 676 680 
684 688 692 696 700 704 708 712 716 
720 724 728 732 736 740 744 748 752 
756 760 764 768 772 776 780 784 788 
792 796 800 804 808 812 816 820 824 
828 832 836 840 844 848 852 856 860 
864 868 872 876 880 884 888 892 896 
900 904 908 912 916 920 924 928 932 
936 940 944 948 952 956 960 964 968 
972 976 980 984 988 992 996 1000 1004 
1008 1012 1016 1020 1024 1028 1032 1036 1040 
1044 1048 1052 1056 1060 1064 1068 1072 1076 
1080 1084 1088 1092 1096 1100 1104 1108 1112 
1116 1120 1124 1128 1132 
CONNECTIVITY vtktypeint64
0 1 3 2 4 5 7 6 8 
9 11 10 12 13 15 14 13 16 
17 15 16 18 19 17 18 20 21 
19 20 22 23 21 22 24 25 23 
24 26 27 25 26 28 29 27 28 
30 31 29 30 32 33 31 32 34 
35 33 34 36 37 35 36 38 39 
37 40 41 43 42 44 45 47 46 
48 49 51 50 14 15 53 52 15 
17 54 53 17 19 55 54 19 21 
56 55 21 23 57 56 23 25 58 
57 25 27 59 58 27 29 60 59 
29 31 61 60 31 33 62 61 33 
35 63 62 35 37 64 63 37 39 
65 64 66 67 69 68 70 71 73 
72 74 75 77 76 52 53 79 78 
53 54 80 79 54 55 81 80 55 
56 82 81 56 57 83 82 57 58 
84 83 58 59 85 84 59 60 86 
85 60 61 87 86 61 62 88 87 
62 63 89 88 63 64 90 89 64 
65 91 90 92 93 95 94 93 96 
97 95 96 78 98 97 78 79 99 
98 79 80 100 99 80 81 101 100 
81 82 102 101 82 83 103 102 83 
84 104 103 84 85 105 104 85 86 
106 105 86 87 107 106 87 88 108 
107 88 89 109 108 89 90 110 109 
90 91 111 110 94 95 113 112 95 
97 114 113 97 98 115 114 98 99 
116 115 99 100 117 116 100 101 118 
117 101 102 119 118 102 103 120 119 
103 104 121 120 104 105 122 121 105 
106 123 122 106 107 124 123 107 108 
125 124 108 109 126 125 109 110 127 
126 110 111 128 127 112 113 130 129 
113 114 131 130 114 115 132 131 115 
116 133 132 116 117 134 133 117 118 
135 134 118 119 136 135 119 120 137 
136 120 121 138 137 121 122 139 138 
122 123 140 139 123 124 141 140 124 
125 142 141 125 126 143 142 126 127 
144 143 127 128 145 144 129 130 147 
146 130 131 148 147 131 132 149 148 
132 133 150 149 133 134 151 150 134 
135 152 151 135 136 153 152 136 137 
154 153 137 138 155 154 138 139 156 
155 139 140 157 156 140 141 158 157 
141 142 159 158 142 143 160 159 143 
144 161 160 144 145 162 161 146 147 
164 163 147 148 165 164 148 149 166 
165 149 150 167 166 150 151 168 167 
151 152 169 168 152 153 170 169 153 
154 171 170 154 155 172 171 155 156 
173 172 156 157 174 173 157 158 175 
174 158 159 176 175 159 160 177 176 
160 161 178 177 161 162 179 178 163 
164 181 180 164 165 182 181 165 166 
183 182 166 167 184 183 167 168 185 
184 168 169 186 185 169 170 187 186 
170 171 188 187 171 172 189 188 172 
173 190 189 173 174 191 190 174 175 
192 191 175 176 193 192 176 177 194 
193 177 178 195 194 178 179 196 195 
180 181 198 197 181 182 199 198 182 
183 200 199 183 184 201 200 184 185 
202 201 185 186 203 202 186 187 204 
203 187 188 205 204 188 189 206 205 
189 190 207 206 190 191 208 207 191 
192 209 208 192 193 210 209 193 194 
211 210 194 195 212 211 195 196 213 
212 197 198 215 214 198 199 216 215 
199 200 217 216 200 201 218 217 201 
202 219 218 202 203 220 219 203 204 
221 220 204 205 222 221 205 206 223 
222 206 207 224 223 207 208 225 224 
208 209 226 225 209 210 227 226 210 
211 228 227 211 212 229 228 212 213 
230 229 214 215 232 231 215 216 233 
232 216 217 234 233 217 218 235 234 
218 219 236 235 219 220 237 236 220 
221 238 237 221 222 239 238 222 223 
240 239 223 224 241 240 224 225 242 
241 225 226 243 242 226 227 244 243 
227 228 245 244 228 229 246 245 229 
230 247 246 231 232 249 248 232 233 
250 249 233 234 251 250 234 235 252 
251 235 236 253 252 236 237 254 253 
237 238 255 254 238 239 256 255 239 
240 257 256 240 241 258 257 241 242 
259 258 242 243 260 259 243 244 261 
260 244 245 262 261 245 246 263 262 
246 247 264 263 248 249 266 265 249 
250 267 266 250 251 268 267 251 252 
269 268 252 253 270 269 253 254 271 
270 254 255 272 271 255 256 273 272 
256 257 274 273 257 258 275 274 258 
259 276 275 259 260 277 276 260 261 
278 277 261 262 279 278 262 263 280 
279 263 264 281 280 265 266 283 282 
266 267 284 283 267 268 285 284 268 
269 286 285 269 270 287 286 270 271 
288 287 271 272 289 288 272 273 290 
289 273 274 291 290 274 275 292 291 
275 276 293 292 276 277 294 293 277 
278 295 294 278 279 296 295 279 280 
297 296 280 281 298 297 282 283 300 
299 283 284 301 300 284 285 302 301 
285 286 303 302 286 287 304 303 287 
288 305 304 288 289 306 305 289 290 
307 306 290 291 308 307 291 292 309 
308 292 293 310 309 293 294 311 310 
294 295 312 311 295 296 313 312 296 
297 314 313 297 298 315 314 1 4 
6 3 41 44 46 43 67 70 72 
69 5 8 10 7 45 48 50 47 
71 74 76 73 9 12 316 11 49 
14 317 51 75 52 318 77 2 3 
41 40 6 7 45 44 10 11 49 
48 3 6 44 41 7 10 48 45 
11 316 14 49 42 43 67 66 46 
47 71 70 50 51 75 74 43 46 
70 67 47 50 74 71 51 317 52 
75 68 69 319 92 72 73 320 93 
76 77 321 96 69 72 93 319 73 
76 96 320 77 318 78 321 
CELL_TYPES 283
9
9
9
9
9
9
9
9
9
9
9
9
9
9
9
9
9
9
9
9
9
9
9
9
9
9
9
9
9
9
9
9
9
9
9
9
9
9
9
9
9
9
9
9
9
9
9
9
9
9
9
9
9
9
9
9
9
9
9
9
9
9
9
9
9
9
9
9
9
9
9
9
9
9
9
9
9
9
9
9
9
9
9
9
9
9
9
9
9
9
9
9
9
9
9
9
9
9
9
9
9
9
9
9
9
9
9
9
9
9
9
9
9
9
9
9
9
9
9
9
9
9
9
9
9
9
9
9
9
9
9
9
9
9
9
9
9
9
9
9
9
9
9
9
9
9
9
9
9
9
9
9
9
9
9
9
9
9
9
9
9
9
9
9
9
9
9
9
9
9
9
9
9
9
9
9
9
9
9
9
9
9
9
9
9
9
9
9
9
9
9
9
9
9
9
9
9
9
9
9
9
9
9
9
9
9
9
9
9
9
9
9
9
9
9
9
9
9
9
9
9
9
9
9
9
9
9
9
9
9
9
9
9
9
9
9
9
9
9
9
9
9
9
9
9
9
9
9
9
9
9
9
9
9
9
9
9
9
9
9
9
9
9
9
9
9
9
9
9
9
9
9
9
9
9
9
9
9
9
9
9
9
9

CELL_DATA 283
FIELD FieldData 25
Continuous%20global%20L2-projection%20(u^*,p^*)-(u,p)| 1 283 double
1.0508239932 0.027663425818 0.0062242379484 0.0018670575104 0.00068840230287 0.00056989539549 0.00026425269559 0.00032905918672 0.00027959743465 
0.00029732142569 0.00028915251446 0.00029268424852 0.00029117723622 0.00029201947355 0.00029111970464 0.00028803842698 0.027663363899 0.0022159260156 
0.00062779035239 0.00075155251078 0.00029312094901 0.00038660193603 0.00027811776906 0.00031011771984 0.00029065607076 0.00029681087862 0.00029286668103 
0.00029385475884 0.00029266690938 0.00029320815889 0.00029167166901 0.00029420502291 0.0062266435187 0.00062751961271 0.00031091126165 0.00036960577514 
0.00025473374964 0.00030613959451 0.00028099090432 0.00029312161988 0.00028899920587 0.00029158427754 0.00029092920684 0.00029155642183 0.0002913457735 
0.00029182130103 0.00029107836628 0.00029145218621 0.0018634727916 0.00074843768806 0.00036856431593 0.00032141170608 0.00029576292224 0.00029641620725 
0.00029289025845 0.00029305674968 0.00029245934845 0.0002924495227 0.00029225012562 0.00029226837003 0.00029200202441 0.00029237183374 0.00029137351988 
0.00029268154744 0.00068686092309 0.00029206075733 0.00025431709256 0.0002957766242 0.00028796794206 0.00029224949258 0.00029065916611 0.00029165886593 
0.00029146525069 0.00029174477485 0.0002917254156 0.00029186400707 0.00029172496571 0.00029209365159 0.00029132784891 0.00029216101374 0.00056888399609 
0.00038590213373 0.00030595976943 0.00029636715411 0.00029224043482 0.0002928168868 0.00029202670808 0.0002920827035 0.00029194811171 0.00029198004102 
0.00029193431951 0.00029200215844 0.00029184539532 0.00029218618886 0.00029141812516 0.00029236604853 0.00026370070656 0.00027807712371 0.00028093647185 
0.0002928676711 0.00029064643263 0.00029202218458 0.00029155658525 0.00029183228459 0.00029176410486 0.00029185267743 0.00029183744464 0.00029192313401 
0.00029180244881 0.00029211805547 0.00029145422695 0.00029224568906 0.00032851553635 0.00030999390274 0.00029308871409 0.00029303874815 0.0002916493441 
0.00029207789905 0.00029183050471 0.00029190615075 0.00029186637556 0.00029190131054 0.00029188436932 0.00029194972924 0.00029183801174 0.00029212074994 
0.00029151643788 0.00029225373634 0.00027920954097 0.00029062394683 0.00028898935706 0.00029245105149 0.0002914593556 0.00029194393232 0.00029176209217 
0.00029186561993 0.00029184115121 0.00029188320853 0.00029187362436 0.00029193725029 0.00029184250973 0.0002920964026 0.00029156249173 0.000292219876 
0.00029689596744 0.00029677193913 0.00029157029589 0.00029244608688 0.00029174017612 0.00029197756031 0.00029185069277 0.00029190039286 0.00029188270769 
0.00029190920479 0.00029190085737 0.00029195336546 0.00029187304982 0.00029208894087 0.0002916309835 0.00029217346682 0.00028891702443 0.00029280832645 
0.00029092994133 0.00029224283472 0.00029172490807 0.00029193180273 0.00029183663586 0.00029188353609 0.00029187328953 0.00029190086072 0.00029189739681 
0.00029195066223 0.00029188082339 0.00029208364694 0.00029166041205 0.00029222101023 0.00029217787212 0.00029386433653 0.00029152788132 0.00029227439407 
0.00029185889026 0.00029200330048 0.0002919218208 0.00029194950523 0.00029193633309 0.00029195272913 0.00029194950183 0.00029198806612 0.00029194286522 
0.00029208953425 0.0002917867353 0.00029206022669 0.00029141365902 0.00029252341901 0.00029137918864 0.00029198314596 0.0002917360936 0.00029184434872 
0.00029180661983 0.00029183940801 0.00029184452182 0.00029187446978 0.00029188188924 0.00029194495855 0.00029189837168 0.00029210816762 0.00029173146711 
0.00029243640349 0.00029063956746 0.00029339362895 0.00029174515001 0.00029242506558 0.00029209024269 0.00029220675415 0.00029212520826 0.0002921308002 
0.0002921020148 0.00029209376463 0.00029208502344 0.00029209045175 0.00029210314016 0.00029215978665 0.00029214668427 0.0002916509833 0.00029370877877 
0.00029142498346 0.00029129948807 0.00029138169916 0.00029143525985 0.00029147310497 0.00029152481133 0.00029157289744 0.00029161895951 0.00029168009007 
0.00029170802068 0.00029182379786 0.00029177076724 0.00029215304988 0.00029184692781 0.0002938619326 0.00028214425168 0.00029508317838 0.00029177802667 
0.00029340773403 0.0002926552874 0.00029291162545 0.00029271618283 0.0002927044029 0.00029261931674 0.00029254152169 0.00029252321295 0.00029236083865 
0.00029257925669 0.00029198366818 0.00029331719173 0.00028899347982 0.048917730989 0.005550824819 0.0013005957255 0.013155455762 0.0011329076765 
0.00034061207015 0.0026630950129 0.00024569726322 0.00013602051685 0.048917361808 0.0055502188644 0.0013007922224 0.01232280896 0.0029617235575 
0.0006492156514 0.013156104262 0.0011325417635 0.000340865417 0.0029615630296 0.00060662045768 0.00032746302989 0.0026636705492 0.00024554534193 
0.00013528401815 0.00064621898115 0.00032499168915 0.00019101348477 
Continuous%20global%20L2-projection%20eta^rec 1 283 double
0.11326510987 1.9967590108 4.1989578837 0.99558147711 1.3155954533 0.79286890849 0.96306673093 0.50441763535 0.46952668899 
0.30360726438 0.2538623957 0.19142858548 0.15907762982 0.1294832177 0.11140302223 0.093194002055 1.9967627673 2.4399553601 
1.3160474171 0.80248594881 1.0832928458 0.76007326706 0.76601987978 0.50650633272 0.4203435387 0.30363631089 0.24358004718 
0.19069381247 0.15700374656 0.12910192728 0.11135123489 0.092446184308 4.1966451666 1.3159176625 0.73170951196 0.68431383028 
0.88319141139 0.62793200832 0.58296510433 0.42522351871 0.3457754252 0.2644876325 0.21318172566 0.17141180861 0.14221950254 
0.11841233324 0.10261971953 0.083868380833 0.9952005656 0.80192485849 0.68438500014 0.6056125967 0.54778122026 0.47719580031 
0.41381258494 0.33911192611 0.27748746996 0.22590307637 0.18613447524 0.15488395118 0.13110677123 0.11133540852 0.097844065258 
0.081775154348 1.3152897573 1.0816364846 0.88164387728 0.54704962328 0.36704382959 0.29845491912 0.27442173723 0.24150372607 
0.21070084504 0.18078656095 0.15548962051 0.13388684094 0.11648090387 0.10102544903 0.090320319305 0.075987534687 0.79419136415 
0.76030406749 0.62919804327 0.47716057228 0.29898253086 0.21275697845 0.18578759015 0.17171281541 0.15858826936 0.14380821502 
0.12934742392 0.11557946064 0.1035491856 0.091925031496 0.08360536995 0.071710125539 0.96007207643 0.7629402126 0.58173561939 
0.41366976142 0.27523863488 0.18649965187 0.14595755832 0.13053708257 0.12313407927 0.11595305208 0.10826441223 0.099933585345 
0.091953122355 0.083407712852 0.077079881966 0.067100299117 0.50560358558 0.50644855833 0.42638037961 0.33972641623 0.24324261336 
0.17363027718 0.13211201698 0.1125424124 0.10402273842 0.098787904432 0.094003716401 0.088633902907 0.083132325994 0.076700066968 
0.071715343496 0.063431245993 0.46706323898 0.41868736304 0.34676885677 0.27921993171 0.21373158122 0.16208018616 0.12663564292 
0.10626432538 0.095749593379 0.089853632336 0.085549824715 0.081280451746 0.076958749806 0.071752987728 0.067547094931 0.060509717041 
0.30552267227 0.30508954847 0.26814007735 0.22951084678 0.18580186717 0.14939133948 0.12179357883 0.10368372782 0.092720553158 
0.086001842207 0.081288866577 0.077120881038 0.073130630861 0.068490289581 0.064613638212 0.058430499297 0.25612694937 0.24655229249 
0.21916215374 0.19253133003 0.16335755816 0.13787058722 0.11717284995 0.10220384191 0.091966879316 0.084973431031 0.07981808948 
0.075394450936 0.07132143726 0.066812217284 0.062986849996 0.057379208385 0.1985297842 0.1974706911 0.18108062049 0.16461829452 
0.14506678854 0.12736102432 0.11209654671 0.10017983749 0.091217077618 0.084492943762 0.079190139237 0.074570763746 0.070329542741 
0.06581698523 0.061927796175 0.056589246747 0.17010126972 0.16876801006 0.15706905954 0.14614717246 0.13290533765 0.12052049821 
0.10925578735 0.099847903677 0.092162716142 0.085887112694 0.080591021121 0.075785727394 0.071347960145 0.066613083619 0.062658297989 
0.057576905349 0.14696668002 0.14515353999 0.13748981773 0.13032479607 0.12120118459 0.11244266461 0.10407727301 0.096694883425 
0.090258006475 0.084657083361 0.079657002154 0.074986215324 0.070528975431 0.065913479166 0.061768078088 0.056985913144 0.14002398806 
0.13990869706 0.1336491449 0.12894963889 0.12237951387 0.11589556574 0.10934253001 0.10317743892 0.097408307395 0.092014715542 
0.086934718577 0.081910262252 0.077175011371 0.071782613966 0.067847259983 0.063000519687 0.13535649124 0.1319990711 0.12383969245 
0.12243990502 0.11681842813 0.11260518561 0.10748658388 0.1027039571 0.097879919014 0.093126311736 0.088516702897 0.083583505012 
0.079239697079 0.073448230324 0.070499066114 0.066506470425 1.0936834609 1.76969532 1.8698339785 2.9661992599 2.2544444669 
1.1737839707 3.2825981566 0.88962014278 0.93434798387 1.0936956066 1.7695190018 1.869445866 0.70465795219 1.6737938186 
1.124712767 2.9663318012 2.254930551 1.1727097677 1.6738191725 2.0232302384 0.92741478097 3.2953366679 0.89290031878 
0.93225878538 1.1244259331 0.92483898951 1.0810974874 
Continuous%20global%20L2-projection%20|(u^*,p^*)-(u^h,p^h)| 1 283 double
0.015905224456 0.00069265340829 3.5984709435e-05 4.3195295199e-06 2.1982081311e-06 2.207684071e-07 1.6197922452e-07 3.2139790549e-08 2.3080249593e-08 
8.8897395747e-09 5.9394448171e-09 3.2964006561e-09 2.2440470853e-09 1.47072233e-09 1.0848699283e-09 7.2818320562e-10 0.00069263708622 5.6453827007e-06 
4.1888456213e-07 1.317777576e-06 7.3767805058e-07 1.5093562185e-07 8.9641423807e-08 3.0335620931e-08 1.8031925231e-08 8.78259592e-09 5.4377021862e-09 
3.2623640575e-09 2.1819540263e-09 1.4624950773e-09 1.0803828443e-09 7.4561566675e-10 3.5971714084e-05 4.1944149413e-07 3.5012556299e-08 2.6747398071e-07 
1.8793405971e-07 6.701784236e-08 4.2526791507e-08 1.9459754489e-08 1.1725544278e-08 6.5378735912e-09 4.1280436275e-09 2.6237786664e-09 1.7864818699e-09 
1.2280932148e-09 9.1893917963e-10 6.0550688576e-10 4.3190802115e-06 1.3160716857e-06 2.679276906e-07 6.5911066263e-08 4.1002383856e-08 2.6862170963e-08 
1.8216988537e-08 1.1364545261e-08 7.2661836259e-09 4.6764348154e-09 3.116379384e-09 2.1311365957e-09 1.5138622812e-09 1.0843551975e-09 8.3387709903e-10 
5.7817502212e-10 2.1933849901e-06 7.3533421202e-07 1.8735278885e-07 4.0924378151e-08 1.4583757729e-08 8.9187086486e-09 7.2525111714e-09 5.4595963321e-09 
4.0678334951e-09 2.9481956536e-09 2.1559824982e-09 1.5848500679e-09 1.1917286466e-09 8.9142877239e-10 7.1014439517e-10 4.9874965635e-10 2.2177934156e-07 
1.5121090507e-07 6.7396814817e-08 2.6909208516e-08 8.9622842628e-09 4.2717965833e-09 3.1813175847e-09 2.6809263419e-09 2.2633414566e-09 1.8453556879e-09 
1.4823523932e-09 1.1765363149e-09 9.3963545225e-10 7.3711787606e-10 6.0785040646e-10 4.443688268e-10 1.6125764005e-07 8.9233143273e-08 4.2513490722e-08 
1.8274738288e-08 7.3188250206e-09 3.211576712e-09 1.9294794333e-09 1.5285770416e-09 1.3513339151e-09 1.1918898328e-09 1.034068231e-09 8.7715958268e-10 
7.3968472261e-10 6.0622002949e-10 5.1628071594e-10 3.8909575471e-10 3.2480566821e-08 3.0524346878e-08 1.9693652668e-08 1.1477052529e-08 5.5683775952e-09 
2.7521174022e-09 1.5690987154e-09 1.1294255756e-09 9.5984547397e-10 8.6204465009e-10 7.7760955627e-10 6.8880726313e-10 6.0387185915e-10 5.1227105833e-10 
4.4664295182e-10 3.4778152659e-10 2.30527762e-08 1.806416991e-08 1.1905418858e-08 7.4231429654e-09 4.2190661006e-09 2.3795449623e-09 1.4359779495e-09 
1.0041573146e-09 8.1144166259e-10 7.119097678e-10 6.4316623278e-10 5.7869152382e-10 5.1716069214e-10 4.4813573797e-10 3.9607324853e-10 3.1656063096e-10 
9.1192872638e-09 8.9830581437e-09 6.8049876426e-09 4.8848165907e-09 3.1478842632e-09 2.010075909e-09 1.3248378533e-09 9.5462593573e-10 7.6017069605e-10 
6.5169068032e-10 5.8035751218e-10 5.2076113992e-10 4.6685978761e-10 4.0825083955e-10 3.6235442139e-10 2.952638214e-10 6.1476851858e-09 5.6634937327e-09 
4.4332272659e-09 3.3851491361e-09 2.4131804717e-09 1.7052119183e-09 1.2240822813e-09 9.2687999601e-10 7.4760982474e-10 6.3608919191e-10 5.5950007644e-10 
4.9770143161e-10 4.4406318334e-10 3.8854024224e-10 3.443326978e-10 2.8487321372e-10 3.6167370631e-09 3.5700138255e-09 2.9858537973e-09 2.4528222134e-09 
1.8932718819e-09 1.4514148315e-09 1.1191177454e-09 8.9026500274e-10 7.3550613788e-10 6.290385916e-10 5.5087219022e-10 4.8702573394e-10 4.319382706e-10 
3.7717432204e-10 3.3298187854e-10 2.771357598e-10 2.6325952889e-09 2.5812456651e-09 2.230857593e-09 1.9237830962e-09 1.5846911677e-09 1.2979487933e-09 
1.0627086723e-09 8.8450420799e-10 7.5113709189e-10 6.5029666295e-10 5.7083615299e-10 5.0330286516e-10 4.4477149057e-10 3.8663359333e-10 3.4094619873e-10 
2.8741908786e-10 1.9379363984e-09 1.9038723427e-09 1.7014498465e-09 1.5259164101e-09 1.3157170239e-09 1.1290798448e-09 9.643377782e-10 8.2984208591e-10 
7.2083759833e-10 6.3223394705e-10 5.5808277097e-10 4.9307653663e-10 4.3498670459e-10 3.7878140981e-10 3.3203052862e-10 2.8066967391e-10 1.8046922454e-09 
1.7584046783e-09 1.610386097e-09 1.4935168265e-09 1.3428489549e-09 1.2008220607e-09 1.0658478186e-09 9.4616677059e-10 8.4071652408e-10 7.4785109467e-10 
6.6543859233e-10 5.8897301855e-10 5.2112452533e-10 4.5004953847e-10 4.0037001559e-10 3.4867731303e-10 1.5252541731e-09 1.5806768772e-09 1.3689012417e-09 
1.3437600853e-09 1.2195862601e-09 1.131617697e-09 1.0287786415e-09 9.3708104953e-10 8.4891458518e-10 7.6632000543e-10 6.9036547096e-10 6.1358565661e-10 
5.5026472195e-10 4.7010365749e-10 4.3604058624e-10 3.7444636479e-10 0.0069321048338 4.9606351179e-05 3.2842610763e-06 0.00022012733557 1.5897926762e-06 
1.3692322414e-07 8.2454692276e-06 1.8189075447e-07 4.0063306463e-08 0.0069320048906 4.960209863e-05 3.285326091e-06 0.00028418503483 8.9865167893e-06 
9.2393825963e-07 0.00022010319516 1.5892240844e-06 1.3719343856e-07 8.9862758997e-06 4.3324051826e-07 1.9322244024e-07 8.2358902902e-06 1.82315812e-07 
4.028797482e-08 9.2025640168e-07 1.9195463985e-07 5.8381494243e-08 
Continuous%20global%20L2-projection%20|div%20u^*|_L2 1 283 double
0.027343282522 0.008802359672 0.001997716033 0.0005808038752 0.00028318899026 0.00013823604711 6.4316441849e-05 3.3062258112e-05 1.8768958049e-05 
1.5160134449e-05 1.3222322442e-05 1.2445370066e-05 1.1707191596e-05 1.0703298026e-05 1.0306547193e-05 9.9922266807e-06 0.0088019176008 0.0018417046701 
0.00045400559712 0.00022347630508 0.00013972427758 7.6249164861e-05 3.4278921448e-05 1.8270056412e-05 7.9032306021e-06 6.3097784171e-06 4.4686410302e-06 
4.4423891461e-06 4.0027887339e-06 3.7343667501e-06 3.5329321139e-06 3.861631857e-06 0.001998018491 0.00045380730115 0.00013427893891 7.6527058728e-05 
5.078964813e-05 2.6309970401e-05 1.3055399592e-05 6.1983307618e-06 3.5065148035e-06 2.2925709598e-06 2.0140059531e-06 1.8404090981e-06 1.6769015313e-06 
1.7083123009e-06 1.2894992298e-06 1.8894726584e-06 0.00057602988648 0.00021558724923 7.3330023142e-05 6.072767228e-06 6.3010826064e-06 1.6911239785e-06 
2.2638359912e-06 7.8071735166e-07 1.1446140159e-06 8.081309709e-07 8.6837953646e-07 7.6363212697e-07 7.5702823795e-07 6.656615968e-07 7.5224674692e-07 
1.1311923822e-06 0.00028084650394 0.00013859788504 4.9218535807e-05 5.2080792573e-06 3.8671351307e-06 1.2946541561e-06 1.1804036039e-06 3.7763985148e-07 
5.2003386305e-07 3.4587097515e-07 3.7202257218e-07 3.4668454449e-07 2.9935578285e-07 4.0554080308e-07 3.4530174331e-07 8.504763899e-07 0.00013539559102 
7.3556809212e-05 2.5743335932e-05 2.1469646766e-06 1.6290837645e-06 6.238136315e-07 5.1557207024e-07 1.5779256756e-07 2.2526031346e-07 1.4157639203e-07 
1.6545939351e-07 1.3475608946e-07 1.7287494559e-07 1.7643689661e-07 4.0554836772e-07 9.2114361993e-07 6.234838402e-05 3.4407613931e-05 1.242388273e-05 
1.4747943282e-06 9.4000441012e-07 3.5396708799e-07 2.7718778283e-07 8.456188867e-08 1.0833329364e-07 6.780404076e-08 7.0373685929e-08 8.2553767835e-08 
8.5201926866e-08 2.0971447947e-07 3.8212070311e-07 1.0151295959e-06 2.8430783137e-05 1.631069169e-05 5.7787697007e-06 5.2661458313e-07 3.5923760047e-07 
1.4315018068e-07 1.0789405885e-07 3.7448443996e-08 4.4997084581e-08 2.9134608335e-08 3.6851019467e-08 4.5126250864e-08 9.3366179501e-08 1.957279347e-07 
4.4198690431e-07 1.1938549536e-06 1.2573080784e-05 6.977124408e-06 2.6491479414e-06 4.5135788979e-07 2.3976017092e-07 1.0387706321e-07 6.9620342035e-08 
3.6271824607e-08 3.6551083361e-08 3.1438057967e-08 3.594165657e-08 4.9297632979e-08 1.0123491826e-07 2.2016226792e-07 5.0439978094e-07 1.4109875514e-06 
6.4709305267e-06 3.583540387e-06 1.2357008641e-06 1.6356849761e-07 1.3449725642e-07 7.956560793e-08 8.8683080692e-08 7.8029800778e-08 7.5802361223e-08 
7.504764139e-08 6.5338521221e-08 9.1580443935e-08 1.0905586331e-07 2.7744746101e-07 5.7310481277e-07 1.6608588316e-06 4.3612763023e-06 1.7097029458e-06 
7.504198681e-07 3.6852567355e-07 2.0896147496e-07 2.025856837e-07 1.7732315275e-07 1.7399660631e-07 1.6558310965e-07 1.5612354441e-07 1.5651126481e-07 
1.3929347899e-07 2.0065118931e-07 2.8355461187e-07 7.1048970255e-07 2.0091178201e-06 4.4692872572e-06 1.7061018742e-06 9.4888297451e-07 4.514347917e-07 
5.0586412973e-07 4.2430501269e-07 4.3317305575e-07 4.0717532006e-07 3.9260299235e-07 3.7888817876e-07 3.4826985242e-07 3.6471008505e-07 3.0281694905e-07 
5.2901457292e-07 7.6751626254e-07 2.2985746527e-06 5.5406664659e-06 2.1380393025e-06 1.1810453754e-06 1.1523980397e-06 1.026873061e-06 1.0197555083e-06 
9.7338848519e-07 9.4151371224e-07 9.0212640774e-07 8.5950513666e-07 8.2395353689e-07 7.6475004953e-07 7.7066178924e-07 7.051871231e-07 1.185213684e-06 
2.9680388695e-06 6.2884658868e-06 2.6857771274e-06 3.0162825671e-06 2.3481998223e-06 2.4888952624e-06 2.3169416193e-06 2.2837303571e-06 2.1848106333e-06 
2.1011733596e-06 2.0144329437e-06 1.89615029e-06 1.8454535998e-06 1.6342753872e-06 1.8312114257e-06 1.5109879986e-06 3.3765376023e-06 1.0407498355e-05 
6.5575913798e-06 5.7009075593e-06 5.8193685492e-06 5.5859274443e-06 5.4800552513e-06 5.2949532161e-06 5.1176623769e-06 4.9174875164e-06 4.7018996847e-06 
4.4863982185e-06 4.2236509869e-06 4.0354852591e-06 3.6444774983e-06 3.8364242406e-06 5.5830245419e-06 2.0123052878e-05 1.8115412475e-05 1.6094134322e-05 
1.6690095915e-05 1.5928956779e-05 1.5716573364e-05 1.5184373318e-05 1.4714500279e-05 1.4158647997e-05 1.3553691954e-05 1.2961098155e-05 1.2188104234e-05 
1.1706444543e-05 1.0487879895e-05 1.0788549734e-05 1.0964651132e-05 0.016033051451 0.0043041202881 0.00099309225883 0.0042227646427 0.00092904287135 
0.00021105393301 0.00088231354603 0.00016872597678 8.2733698198e-05 0.016031922216 0.0043034076544 0.0009930447525 0.0093111706838 0.0021766654671 
0.00046774673471 0.0042227968291 0.00092867593229 0.00021143856286 0.0021764400542 0.00044806810536 0.00022176302683 0.00088386312771 0.00016902496619 
8.1783387429e-05 0.00046436495106 0.00021902134255 1.508867278e-05 
Continuous%20global%20L2-projection%20|p^*-p^h|_L2 1 283 double
0.11992423013 0.024434643069 0.0055899420324 0.0019737276328 0.0014320031173 0.00044533761826 0.00039292006152 0.00017436269096 0.00014857029026 
9.0675652407e-05 7.3212418729e-05 5.2836817355e-05 4.2382096384e-05 3.2942501428e-05 2.7336050122e-05 2.0882190377e-05 0.024434242427 0.0013183985558 
0.00042827776732 0.001110361154 0.00083006879359 0.00037776407181 0.00029335121166 0.00017072580146 0.00013111442813 9.0196802304e-05 6.9806054517e-05 