# vtk DataFile Version 5.1
vtk output
ASCII
DATASET UNSTRUCTURED_GRID
POINTS 289 double
0 0 0 0.0625 0 0 0 0.0625 0 
0.0625 0.0625 0 0.125 0 0 0.125 0.0625 0 
0.1875 0 0 0.1875 0.0625 0 0.25 0 0 
0.25 0.0625 0 0.3125 0 0 0.3125 0.0625 0 
0.375 0 0 0.375 0.0625 0 0.4375 0 0 
0.4375 0.0625 0 0.5 0 0 0.5 0.0625 0 
0.5625 0 0 0.5625 0.0625 0 0.625 0 0 
0.625 0.0625 0 0.6875 0 0 0.6875 0.0625 0 
0.75 0 0 0.75 0.0625 0 0.8125 0 0 
0.8125 0.0625 0 0.875 0 0 0.875 0.0625 0 
0.9375 0 0 0.9375 0.0625 0 1 0 0 
1 0.0625 0 0 0.125 0 0.0625 0.125 0 
0.125 0.125 0 0.1875 0.125 0 0.25 0.125 0 
0.3125 0.125 0 0.375 0.125 0 0.4375 0.125 0 
0.5 0.125 0 0.5625 0.125 0 0.625 0.125 0 
0.6875 0.125 0 0.75 0.125 0 0.8125 0.125 0 
0.875 0.125 0 0.9375 0.125 0 1 0.125 0 
0 0.1875 0 0.0625 0.1875 0 0.125 0.1875 0 
0.1875 0.1875 0 0.25 0.1875 0 0.3125 0.1875 0 
0.375 0.1875 0 0.4375 0.1875 0 0.5 0.1875 0 
0.5625 0.1875 0 0.625 0.1875 0 0.6875 0.1875 0 
0.75 0.1875 0 0.8125 0.1875 0 0.875 0.1875 0 
0.9375 0.1875 0 1 0.1875 0 0 0.25 0 
0.0625 0.25 0 0.125 0.25 0 0.1875 0.25 0 
0.25 0.25 0 0.3125 0.25 0 0.375 0.25 0 
0.4375 0.25 0 0.5 0.25 0 0.5625 0.25 0 
0.625 0.25 0 0.6875 0.25 0 0.75 0.25 0 
0.8125 0.25 0 0.875 0.25 0 0.9375 0.25 0 
1 0.25 0 0 0.3125 0 0.0625 0.3125 0 
0.125 0.3125 0 0.1875 0.3125 0 0.25 0.3125 0 
0.3125 0.3125 0 0.375 0.3125 0 0.4375 0.3125 0 
0.5 0.3125 0 0.5625 0.3125 0 0.625 0.3125 0 
0.6875 0.3125 0 0.75 0.3125 0 0.8125 0.3125 0 
0.875 0.3125 0 0.9375 0.3125 0 1 0.3125 0 
0 0.375 0 0.0625 0.375 0 0.125 0.375 0 
0.1875 0.375 0 0.25 0.375 0 0.3125 0.375 0 
0.375 0.375 0 0.4375 0.375 0 0.5 0.375 0 
0.5625 0.375 0 0.625 0.375 0 0.6875 0.375 0 
0.75 0.375 0 0.8125 0.375 0 0.875 0.375 0 
0.9375 0.375 0 1 0.375 0 0 0.4375 0 
0.0625 0.4375 0 0.125 0.4375 0 0.1875 0.4375 0 
0.25 0.4375 0 0.3125 0.4375 0 0.375 0.4375 0 
0.4375 0.4375 0 0.5 0.4375 0 0.5625 0.4375 0 
0.625 0.4375 0 0.6875 0.4375 0 0.75 0.4375 0 
0.8125 0.4375 0 0.875 0.4375 0 0.9375 0.4375 0 
1 0.4375 0 0 0.5 0 0.0625 0.5 0 
0.125 0.5 0 0.1875 0.5 0 0.25 0.5 0 
0.3125 0.5 0 0.375 0.5 0 0.4375 0.5 0 
0.5 0.5 0 0.5625 0.5 0 0.625 0.5 0 
0.6875 0.5 0 0.75 0.5 0 0.8125 0.5 0 
0.875 0.5 0 0.9375 0.5 0 1 0.5 0 
0 0.5625 0 0.0625 0.5625 0 0.125 0.5625 0 
0.1875 0.5625 0 0.25 0.5625 0 0.3125 0.5625 0 
0.375 0.5625 0 0.4375 0.5625 0 0.5 0.5625 0 
0.5625 0.5625 0 0.625 0.5625 0 0.6875 0.5625 0 
0.75 0.5625 0 0.8125 0.5625 0 0.875 0.5625 0 
0.9375 0.5625 0 1 0.5625 0 0 0.625 0 
0.0625 0.625 0 0.125 0.625 0 0.1875 0.625 0 
0.25 0.625 0 0.3125 0.625 0 0.375 0.625 0 
0.4375 0.625 0 0.5 0.625 0 0.5625 0.625 0 
0.625 0.625 0 0.6875 0.625 0 0.75 0.625 0 
0.8125 0.625 0 0.875 0.625 0 0.9375 0.625 0 
1 0.625 0 0 0.6875 0 0.0625 0.6875 0 
0.125 0.6875 0 0.1875 0.6875 0 0.25 0.6875 0 
0.3125 0.6875 0 0.375 0.6875 0 0.4375 0.6875 0 
0.5 0.6875 0 0.5625 0.6875 0 0.625 0.6875 0 
0.6875 0.6875 0 0.75 0.6875 0 0.8125 0.6875 0 
0.875 0.6875 0 0.9375 0.6875 0 1 0.6875 0 
0 0.75 0 0.0625 0.75 0 0.125 0.75 0 
0.1875 0.75 0 0.25 0.75 0 0.3125 0.75 0 
0.375 0.75 0 0.4375 0.75 0 0.5 0.75 0 
0.5625 0.75 0 0.625 0.75 0 0.6875 0.75 0 
0.75 0.75 0 0.8125 0.75 0 0.875 0.75 0 
0.9375 0.75 0 1 0.75 0 0 0.8125 0 
0.0625 0.8125 0 0.125 0.8125 0 0.1875 0.8125 0 
0.25 0.8125 0 0.3125 0.8125 0 0.375 0.8125 0 
0.4375 0.8125 0 0.5 0.8125 0 0.5625 0.8125 0 
0.625 0.8125 0 0.6875 0.8125 0 0.75 0.8125 0 
0.8125 0.8125 0 0.875 0.8125 0 0.9375 0.8125 0 
1 0.8125 0 0 0.875 0 0.0625 0.875 0 
0.125 0.875 0 0.1875 0.875 0 0.25 0.875 0 
0.3125 0.875 0 0.375 0.875 0 0.4375 0.875 0 
0.5 0.875 0 0.5625 0.875 0 0.625 0.875 0 
0.6875 0.875 0 0.75 0.875 0 0.8125 0.875 0 
0.875 0.875 0 0.9375 0.875 0 1 0.875 0 
0 0.9375 0 0.0625 0.9375 0 0.125 0.9375 0 
0.1875 0.9375 0 0.25 0.9375 0 0.3125 0.9375 0 
0.375 0.9375 0 0.4375 0.9375 0 0.5 0.9375 0 
0.5625 0.9375 0 0.625 0.9375 0 0.6875 0.9375 0 
0.75 0.9375 0 0.8125 0.9375 0 0.875 0.9375 0 
0.9375 0.9375 0 1 0.9375 0 0 1 0 
0.0625 1 0 0.125 1 0 0.1875 1 0 
0.25 1 0 0.3125 1 0 0.375 1 0 
0.4375 1 0 0.5 1 0 0.5625 1 0 
0.625 1 0 0.6875 1 0 0.75 1 0 
0.8125 1 0 0.875 1 0 0.9375 1 0 
1 1 0 
CELLS 257 1024
OFFSETS vtktypeint64
0 4 8 12 16 20 24 28 32 
36 40 44 48 52 56 60 64 68 
72 76 80 84 88 92 96 100 104 
108 112 116 120 124 128 132 136 140 
144 148 152 156 160 164 168 172 176 
180 184 188 192 196 200 204 208 212 
216 220 224 228 232 236 240 244 248 
252 256 260 264 268 272 276 280 284 
288 292 296 300 304 308 312 316 320 
324 328 332 336 340 344 348 352 356 
360 364 368 372 376 380 384 388 392 
396 400 404 408 412 416 420 424 428 
432 436 440 444 448 452 456 460 464 
468 472 476 480 484 488 492 496 500 
504 508 512 516 520 524 528 532 536 
540 544 548 552 556 560 564 568 572 
576 580 584 588 592 596 600 604 608 
612 616 620 624 628 632 636 640 644 
648 652 656 660 664 668 672 676 680 
684 688 692 696 700 704 708 712 716 
720 724 728 732 736 740 744 748 752 
756 760 764 768 772 776 780 784 788 
792 796 800 804 808 812 816 820 824 
828 832 836 840 844 848 852 856 860 
864 868 872 876 880 884 888 892 896 
900 904 908 912 916 920 924 928 932 
936 940 944 948 952 956 960 964 968 
972 976 980 984 988 992 996 1000 1004 
1008 1012 1016 1020 1024 
CONNECTIVITY vtktypeint64
0 1 3 2 1 4 5 3 4 
6 7 5 6 8 9 7 8 10 
11 9 10 12 13 11 12 14 15 
13 14 16 17 15 16 18 19 17 
18 20 21 19 20 22 23 21 22 
24 25 23 24 26 27 25 26 28 
29 27 28 30 31 29 30 32 33 
31 2 3 35 34 3 5 36 35 
5 7 37 36 7 9 38 37 9 
11 39 38 11 13 40 39 13 15 
41 40 15 17 42 41 17 19 43 
42 19 21 44 43 21 23 45 44 
23 25 46 45 25 27 47 46 27 
29 48 47 29 31 49 48 31 33 
50 49 34 35 52 51 35 36 53 
52 36 37 54 53 37 38 55 54 
38 39 56 55 39 40 57 56 40 
41 58 57 41 42 59 58 42 43 
60 59 43 44 61 60 44 45 62 
61 45 46 63 62 46 47 64 63 
47 48 65 64 48 49 66 65 49 
50 67 66 51 52 69 68 52 53 
70 69 53 54 71 70 54 55 72 
71 55 56 73 72 56 57 74 73 
57 58 75 74 58 59 76 75 59 
60 77 76 60 61 78 77 61 62 
79 78 62 63 80 79 63 64 81 
80 64 65 82 81 65 66 83 82 
66 67 84 83 68 69 86 85 69 
70 87 86 70 71 88 87 71 72 
89 88 72 73 90 89 73 74 91 
90 74 75 92 91 75 76 93 92 
76 77 94 93 77 78 95 94 78 
79 96 95 79 80 97 96 80 81 
98 97 81 82 99 98 82 83 100 
99 83 84 101 100 85 86 103 102 
86 87 104 103 87 88 105 104 88 
89 106 105 89 90 107 106 90 91 
108 107 91 92 109 108 92 93 110 
109 93 94 111 110 94 95 112 111 
95 96 113 112 96 97 114 113 97 
98 115 114 98 99 116 115 99 100 
117 116 100 101 118 117 102 103 120 
119 103 104 121 120 104 105 122 121 
105 106 123 122 106 107 124 123 107 
108 125 124 108 109 126 125 109 110 
127 126 110 111 128 127 111 112 129 
128 112 113 130 129 113 114 131 130 
114 115 132 131 115 116 133 132 116 
117 134 133 117 118 135 134 119 120 
137 136 120 121 138 137 121 122 139 
138 122 123 140 139 123 124 141 140 
124 125 142 141 125 126 143 142 126 
127 144 143 127 128 145 144 128 129 
146 145 129 130 147 146 130 131 148 
147 131 132 149 148 132 133 150 149 
133 134 151 150 134 135 152 151 136 
137 154 153 137 138 155 154 138 139 
156 155 139 140 157 156 140 141 158 
157 141 142 159 158 142 143 160 159 
143 144 161 160 144 145 162 161 145 
146 163 162 146 147 164 163 147 148 
165 164 148 149 166 165 149 150 167 
166 150 151 168 167 151 152 169 168 
153 154 171 170 154 155 172 171 155 
156 173 172 156 157 174 173 157 158 
175 174 158 159 176 175 159 160 177 
176 160 161 178 177 161 162 179 178 
162 163 180 179 163 164 181 180 164 
165 182 181 165 166 183 182 166 167 
184 183 167 168 185 184 168 169 186 
185 170 171 188 187 171 172 189 188 
172 173 190 189 173 174 191 190 174 
175 192 191 175 176 193 192 176 177 
194 193 177 178 195 194 178 179 196 
195 179 180 197 196 180 181 198 197 
181 182 199 198 182 183 200 199 183 
184 201 200 184 185 202 201 185 186 
203 202 187 188 205 204 188 189 206 
205 189 190 207 206 190 191 208 207 
191 192 209 208 192 193 210 209 193 
194 211 210 194 195 212 211 195 196 
213 212 196 197 214 213 197 198 215 
214 198 199 216 215 199 200 217 216 
200 201 218 217 201 202 219 218 202 
203 220 219 204 205 222 221 205 206 
223 222 206 207 224 223 207 208 225 
224 208 209 226 225 209 210 227 226 
210 211 228 227 211 212 229 228 212 
213 230 229 213 214 231 230 214 215 
232 231 215 216 233 232 216 217 234 
233 217 218 235 234 218 219 236 235 
219 220 237 236 221 222 239 238 222 
223 240 239 223 224 241 240 224 225 
242 241 225 226 243 242 226 227 244 
243 227 228 245 244 228 229 246 245 
229 230 247 246 230 231 248 247 231 
232 249 248 232 233 250 249 233 234 
251 250 234 235 252 251 235 236 253 
252 236 237 254 253 238 239 256 255 
239 240 257 256 240 241 258 257 241 
242 259 258 242 243 260 259 243 244 
261 260 244 245 262 261 245 246 263 
262 246 247 264 263 247 248 265 264 
248 249 266 265 249 250 267 266 250 
251 268 267 251 252 269 268 252 253 
270 269 253 254 271 270 255 256 273 
272 256 257 274 273 257 258 275 274 
258 259 276 275 259 260 277 276 260 
261 278 277 261 262 279 278 262 263 
280 279 263 264 281 280 264 265 282 
281 265 266 283 282 266 267 284 283 
267 268 285 284 268 269 286 285 269 
270 287 286 270 271 288 287 
CELL_TYPES 256
9
9
9
9
9
9
9
9
9
9
9
9
9
9
9
9
9
9
9
9
9
9
9
9
9
9
9
9
9
9
9
9
9
9
9
9
9
9
9
9
9
9
9
9
9
9
9
9
9
9
9
9
9
9
9
9
9
9
9
9
9
9
9
9
9
9
9
9
9
9
9
9
9
9
9
9
9
9
9
9
9
9
9
9
9
9
9
9
9
9
9
9
9
9
9
9
9
9
9
9
9
9
9
9
9
9
9
9
9
9
9
9
9
9
9
9
9
9
9
9
9
9
9
9
9
9
9
9
9
9
9
9
9
9
9
9
9
9
9
9
9
9
9
9
9
9
9
9
9
9
9
9
9
9
9
9
9
9
9
9
9
9
9
9
9
9
9
9
9
9
9
9
9
9
9
9
9
9
9
9
9
9
9
9
9
9
9
9
9
9
9
9
9
9
9
9
9
9
9
9
9
9
9
9
9
9
9
9
9
9
9
9
9
9
9
9
9
9
9
9
9
9
9
9
9
9
9
9
9
9
9
9
9
9
9
9
9
9
9
9
9
9
9
9
9
9
9
9
9
9
9
9
9
9
9
9

CELL_DATA 256
FIELD FieldData 25
Continuous%20global%20L2-projection%20(u^*,p^*)-(u,p)| 1 256 double
1.0508101558 0.048680819216 0.027915472416 0.012975171295 0.0064802150798 0.0026110247245 0.0015818124322 0.00062019757606 0.00071238741981 
0.00055004767433 0.00060171850376 0.00057560668657 0.00058627256553 0.00058177667073 0.00058329104396 0.00057911298872 0.048676590942 0.012586732602 
0.0054427008995 0.0032663031491 0.0013138038414 0.0010373967771 0.00056117228198 0.00064771672807 0.00056926530354 0.00059534154064 0.00058148410027 
0.00058659360106 0.00058361179817 0.00058495350156 0.00058307050144 0.00058574294741 0.027912666916 0.0054468490901 0.0023052577906 0.0011823127574 
0.00085540941521 0.00058953609003 0.00061093572215 0.00057472919282 0.00058643999792 0.00058082848312 0.00058349295808 0.00058262660319 0.00058306392863 
0.00058326213724 0.00058265093006 0.00058294431984 0.012974454323 0.0032647723602 0.0011804493192 0.00094708910908 0.0005806289023 0.00063283236574 
0.0005734998854 0.00059167529043 0.00058150512205 0.00058525609908 0.00058329547941 0.00058403823362 0.00058344617576 0.00058395517871 0.0005828947243 
0.00058421485596 0.0064792526829 0.0013162062717 0.0008560000451 0.00058098781624 0.00062311744031 0.00057233490141 0.0005892871453 0.0005806692876 
0.00058436468494 0.00058282240001 0.00058353693858 0.00058332641468 0.00058332396357 0.00058362578545 0.00058288757194 0.00058369386043 0.0026112020047 
0.0010363026207 0.00058900685477 0.00063275392896 0.00057230079583 0.00059140026124 0.0005808141458 0.00058499091554 0.00058301059611 0.00058382242435 
0.00058341269391 0.00058361895099 0.00058338956966 0.00058375436114 0.00058297176236 0.00058391391282 0.0015812464325 0.00056200824745 0.00061110277894 
0.00057354329432 0.00058929155716 0.00058081579533 0.00058443161489 0.00058286110094 0.00058360762905 0.00058333677013 0.00058346702958 0.00058347786777 
0.00058338032319 0.00058367928482 0.00058301916831 0.000583798425 0.00062031338371 0.00064739133879 0.0005746364379 0.00059165446601 0.00058066219557 
0.00058498867526 0.00058286007666 0.00058374370527 0.00058334660228 0.00058353466671 0.00058344507941 0.0005835346806 0.00058340598804 0.00058369111085 
0.00058308236948 0.0005838125998 0.00071206576858 0.00056936439695 0.00058646326122 0.00058150637081 0.0005843629929 0.00058300847294 0.00058360636276 
0.00058334599902 0.00058347437296 0.00058344544985 0.00058346217308 0.00058350950717 0.00058341735289 0.00058366645663 0.00058313192639 0.00058378185601 
0.00054986788767 0.00059527274242 0.00058080209619 0.0005852494585 0.00058281704071 0.00058381988144 0.00058333469504 0.00058353356796 0.00058344479085 
0.00058349852303 0.0005834749259 0.000583530724 0.00058344594591 0.0005836612066 0.00058320135748 0.00058373764696 0.0006016099462 0.00058145132153 
0.00058349495866 0.00058328589288 0.00058353466413 0.0005834089904 0.00058346536614 0.0005834435922 0.00058346136575 0.00058347466855 0.00058347537546 
0.00058352480525 0.00058345470587 0.0005836559781 0.00058323171628 0.00058378606021 0.00057524516208 0.00058660529849 0.00058259280842 0.00058403983948 
0.00058331805772 0.00058361782679 0.00058347488875 0.00058353320262 0.00058350764971 0.00058352943016 0.00058352328196 0.00058356222342 0.00058351591409 
0.00058366201314 0.00058335828033 0.00058362472781 0.00058660646965 0.00058347535453 0.00058309321962 0.00058342195581 0.00058333063388 0.00058338492629 
0.00058338160606 0.00058340502249 0.00058341742964 0.00058344580501 0.0005834545773 0.00058351722665 0.00058347063063 0.00058368017951 0.00058330237321 
0.00058399852146 0.00058048190254 0.00058513822724 0.0005831740397 0.00058399829216 0.00058361246287 0.00058376644571 0.00058367878201 0.00058369440637 
0.0005836660691 0.00058366074928 0.00058365284989 0.00058365912995 0.00058367260495 0.00058372874147 0.00058371636454 0.00058320875048 0.00058585919662 
0.00058278575429 0.00058283366075 0.00058286298912 0.00058295818591 0.00058299199889 0.00058305763812 0.00058310913568 0.00058316121469 0.00058322585376 
0.00058325729868 0.00058337613646 0.00058332528945 0.0005837107727 0.00058340355278 0.00058539862517 0.00057251392131 0.00058628596709 0.00058298710282 
0.00058464335871 0.00058391430235 0.00058419477827 0.00058402178286 0.00058403190878 0.0005839677485 0.00058391107521 0.00058391208078 0.00058377155545 
0.00058400437106 0.00058343627172 0.00058476571707 0.00058036834579 
Continuous%20global%20L2-projection%20eta^rec 1 256 double
0.11325286203 1.0959058985 1.9661766447 3.0523189289 3.6778595741 4.0284873818 1.7113514886 1.0892718402 0.38189523342 
0.28509613806 0.12389329054 0.11480892173 0.076885229602 0.067907346651 0.05535738007 0.047030324615 1.0960164108 0.70037927314 
1.7946792593 1.5012176588 1.8232896251 0.90458279359 0.73341373561 0.31919258002 0.26257998573 0.15627502767 0.13001968121 
0.09630109128 0.080335434482 0.065119918557 0.056292362994 0.046581995188 1.9663067481 1.7957055955 2.0078931974 1.5582973606 
0.88658463971 0.59471211053 0.35490573885 0.25971455992 0.18004234913 0.14081369963 0.10834743954 0.087877172017 0.071937995591 
0.059968163704 0.051763131993 0.042191351582 3.0538510655 1.5017628686 1.5570759014 0.90431340918 0.57492299501 0.3235489736 
0.25459181959 0.17969224706 0.1477974821 0.11553476867 0.095533383726 0.078580955836 0.066492857383 0.056238214112 0.049371390408 
0.041147012674 3.675842863 1.8232675629 0.88761550146 0.57535295234 0.27800111161 0.19699660583 0.14631156213 0.12890062013 
0.10773439515 0.092884834603 0.078979593725 0.067996455897 0.058918948792 0.051031765433 0.04554501177 0.038232958121 4.0317989908 
0.90460910262 0.59346688463 0.32367400074 0.19683398084 0.11721532833 0.099794336277 0.087763568952 0.081371217915 0.073069043024 
0.06571695786 0.05852071039 0.05236161708 0.046394209432 0.042147481764 0.036075757201 1.7117327427 0.73239875692 0.35613795379 
0.2547160243 0.14714748766 0.10019203311 0.074554911328 0.066967451993 0.062521388172 0.05891088554 0.054843116189 0.05056970793 
0.046453225538 0.042081069279 0.038843626868 0.033756055427 1.0866912796 0.31983081969 0.25968995578 0.18054106443 0.129826719 
0.088922660381 0.067797174758 0.057169113827 0.052850587852 0.050063096539 0.047594789765 0.044811114205 0.041980603222 0.038683307602 
0.036131836614 0.031908995451 0.38385451422 0.2622025069 0.18188086952 0.14903164323 0.10972994285 0.08331028821 0.064431485347 
0.054034230692 0.048559179879 0.045523655897 0.043286042954 0.041080333415 0.038851254069 0.036181945288 0.03402613512 0.03044011254 
0.28413331982 0.15806488499 0.14289148182 0.11799756491 0.09574801041 0.076198243019 0.062033757911 0.052651619944 0.047023506875 
0.043556879197 0.041123551777 0.038971357008 0.036914574276 0.034534101499 0.032546041474 0.029395432244 0.1275868422 0.13204269869 
0.11232701985 0.099282065501 0.083457967877 0.070349728047 0.059597647963 0.051903832437 0.046634633297 0.043035928844 0.040378890013 
0.038098934478 0.036001629716 0.033688920254 0.031726424717 0.028870005423 0.11769314431 0.10069307838 0.09332352389 0.084150733783 
0.074119292073 0.064877546865 0.057012815625 0.050870141138 0.046258449657 0.042797271545 0.040065679119 0.037687011065 0.035504915063 
0.033190665589 0.031196648333 0.028474362561 0.084046866812 0.086933573282 0.080246243003 0.074705835842 0.067774862984 0.061379520437 
0.055557814793 0.05070717802 0.046746779187 0.043512524743 0.040783233092 0.038308933341 0.036025956507 0.033599828163 0.03156749021 
0.028985424865 0.076817104109 0.074109929719 0.070283751911 0.066502924168 0.061788377954 0.057250025005 0.052927544303 0.049115281036 
0.045792326857 0.042901685863 0.040322062386 0.037914992807 0.035622923168 0.033254407912 0.031137134318 0.028667570459 0.07126502751 
0.071477724441 0.068270253062 0.065801920755 0.062398092706 0.059027216102 0.055629655302 0.05243266865 0.049443901798 0.046651484432 
0.044023905209 0.041432160597 0.038989705359 0.036235044631 0.034200160375 0.03182335759 0.068208790833 0.067474117877 0.06314531585 
0.062436516291 0.059526212012 0.057332458442 0.054679587996 0.052195470875 0.049693105649 0.047227980116 0.044840447446 0.042290361499 
0.040054149624 0.037060149317 0.035616353238 0.033296370307 
Continuous%20global%20L2-projection%20|(u^*,p^*)-(u^h,p^h)| 1 256 double
0.015901049712 0.0069305862206 0.00069194997021 0.00021957347794 3.5627214926e-05 9.5951877758e-06 1.37839617e-06 4.3303147337e-07 5.2693524947e-08 
2.8374025275e-08 5.3243363868e-09 4.5413033321e-09 2.0311380323e-09 1.5798119914e-09 1.0499958905e-09 7.4287972195e-10 0.006929954738 0.00028394840559 
4.9554315445e-05 8.9862881722e-06 3.1442896028e-06 4.6637739086e-07 2.1022820286e-07 3.8306068545e-08 2.438617575e-08 8.5467986383e-09 5.8486208947e-09 
3.1951898473e-09 2.2161623358e-09 1.4534243222e-09 1.0840979313e-09 7.4379530188e-10 0.0006919125765 4.9583516227e-05 5.6947878171e-06 1.5985999256e-06 
4.270310565e-07 1.466265902e-07 4.8317388475e-08 2.4302086577e-08 1.1437539548e-08 6.8972560377e-09 4.0573756435e-09 2.6577192159e-09 1.776651062e-09 
1.2319356035e-09 9.1760101156e-10 6.0618293051e-10 0.00021950597177 8.9832246105e-06 1.5953593866e-06 3.933860125e-07 1.2889704284e-07 3.9756866501e-08 
2.3427320604e-08 1.1446512097e-08 7.6288447472e-09 4.6268895959e-09 3.1478535778e-09 2.123306321e-09 1.5170696547e-09 1.0833813293e-09 8.3426654139e-10 
5.7794347269e-10 3.5637574596e-05 3.1456239816e-06 4.2808280375e-07 1.2911900669e-07 2.8736865344e-08 1.3856827579e-08 7.563479147e-09 5.8037813725e-09 
4.0284564372e-09 2.9801377259e-09 2.1478991692e-09 1.5883897578e-09 1.1906216354e-09 8.9185738002e-10 7.0999829917e-10 4.9885169893e-10 9.586722014e-06 
4.664815232e-07 1.4612698213e-07 3.9813084707e-08 1.3839391159e-08 4.8363178515e-09 3.4708183014e-09 2.6718743828e-09 2.2880280194e-09 1.839936177e-09 
1.4851088496e-09 1.1756857113e-09 9.3997283722e-10 7.3700992835e-10 6.078979658e-10 4.4433616395e-10 1.3812476645e-06 2.0997685974e-07 4.871585996e-08 
2.3477565509e-08 7.6568569724e-09 3.5002363641e-09 1.9274210235e-09 1.5495549889e-09 1.3475165293e-09 1.1941510395e-09 1.0333607505e-09 8.7744504952e-10 
7.3958661381e-10 6.0625871602e-10 5.1626911098e-10 3.8911104292e-10 4.3168829167e-07 3.8533968487e-08 2.4345331242e-08 1.1575113638e-08 5.8960294738e-09 
2.7458034411e-09 1.5890907989e-09 1.1271185012e-09 9.6156140339e-10 8.6160723795e-10 7.7780620883e-10 6.8874054711e-10 6.0389662454e-10 5.1226300091e-10 
4.4664729294e-10 3.4777734695e-10 5.3382544335e-08 2.4384376427e-08 1.1703042425e-08 7.7755465905e-09 4.1878631437e-09 2.4024499105e-09 1.4328422097e-09 
1.0057592786e-09 8.1112627216e-10 7.1206346999e-10 6.4312868975e-10 5.7870819244e-10 5.1715592305e-10 4.481378041e-10 3.9607305076e-10 3.1656285642e-10 
2.8281894854e-08 8.7745777847e-09 7.1263985664e-09 4.8414744053e-09 3.1756594783e-09 2.0057452636e-09 1.3266627869e-09 9.5430228476e-10 7.6029761641e-10 
6.5167705896e-10 5.8036915858e-10 5.2076194454e-10 4.6686077039e-10 4.0825119889e-10 3.6235463348e-10 2.9526332235e-10 5.6717788699e-09 6.0582461185e-09 
4.3792795219e-09 3.4132137189e-09 2.4071043215e-09 1.7073500209e-09 1.223613228e-09 9.2700025286e-10 7.4759535497e-10 6.3609598204e-10 5.5950501436e-10 
4.9770223187e-10 4.4406463844e-10 3.8854033149e-10 3.443330484e-10 2.8487359984e-10 4.7966316803e-09 3.5119128723e-09 3.0125819979e-09 2.4467924392e-09 
1.8958353591e-09 1.4508794268e-09 1.1192685083e-09 8.9024022335e-10 7.3550708788e-10 6.2904367798e-10 5.5087200969e-10 4.870280526e-10 4.3193844076e-10 
3.7717485037e-10 3.3298193543e-10 2.7713571769e-10 2.4442444606e-09 2.610650451e-09 2.2242539532e-09 1.926077602e-09 1.5840538435e-09 1.2981148143e-09 
1.062675368e-09 8.845020554e-10 7.5114023713e-10 6.5029428536e-10 5.7083837788e-10 5.0330279902e-10 4.4477219689e-10 3.8663365462e-10 3.409463493e-10 
2.8741915052e-10 2.03008155e-09 1.8973137752e-09 1.7040022659e-09 1.5254210786e-09 1.3159308967e-09 1.1290536975e-09 9.6434049416e-10 8.298449879e-10 
7.208338128e-10 6.3223545179e-10 5.5808206464e-10 4.9307712824e-10 4.3498669431e-10 3.7878155229e-10 3.3203051649e-10 2.8066966559e-10 1.771854445e-09 
1.7605146574e-09 1.6099192995e-09 1.4936159717e-09 1.3428507345e-09 1.2008116308e-09 1.0658584745e-09 9.4616018844e-10 8.4071895139e-10 7.4784927795e-10 
6.6543909792e-10 5.8897270226e-10 5.2112462632e-10 4.5004945665e-10 4.003700038e-10 3.4867730873e-10 1.5389831625e-09 1.5771861584e-09 1.3701368896e-09 
1.3432357385e-09 1.2198063033e-09 1.1315286584e-09 1.0288151633e-09 9.3706598171e-10 8.4892007434e-10 7.6631735121e-10 6.903661745e-10 6.1358510514e-10 
5.502647282e-10 4.7010350126e-10 4.3604053962e-10 3.7444633619e-10 
Continuous%20global%20L2-projection%20|div%20u^*|_L2 1 256 double
0.027335461049 0.01604615248 0.0088067153822 0.0042228086932 0.0019805722006 0.00089449210308 0.00040044203754 0.00017476590345 7.9205797648e-05 
3.4954717913e-05 2.0346678463e-05 1.3339698847e-05 1.2261867774e-05 1.0653851526e-05 1.038392608e-05 9.9949891987e-06 0.01603733004 0.0093422206922 
0.0043157282668 0.0022204396513 0.001048122704 0.00049192056235 0.00021912576947 0.0001016112501 4.2039726079e-05 2.1670855175e-05 7.8104485997e-06 
6.6437228302e-06 3.7270038561e-06 4.0376969202e-06 3.4314763727e-06 3.8798682268e-06 0.0088021803657 0.0043205791803 0.0018400018168 0.00093200494727 
0.00043653672853 0.00020428526055 9.0325360037e-05 4.2258932737e-05 1.7031307339e-05 9.2055752886e-06 2.9334608063e-06 2.9306172294e-06 1.4310586243e-06 
1.8757996408e-06 1.2305192826e-06 1.9196010718e-06 0.0042219333904 0.0022183335024 0.00092988355932 0.00046710945873 0.00022022303069 0.00010299639318 
4.5770243983e-05 2.130953392e-05 8.7109844986e-06 4.5671208122e-06 1.4995927706e-06 1.3522337359e-06 6.4595158477e-07 7.5649762215e-07 7.2184453758e-07 
1.1271824269e-06 0.0019788375527 0.0010509589812 0.00043760523341 0.00022107545117 0.00010438872428 4.8992817982e-05 2.182310984e-05 1.0142126739e-05 
4.1776923097e-06 2.1574310113e-06 7.154843212e-07 6.2761607057e-07 2.4699855294e-07 4.4210859992e-07 3.4078644555e-07 8.5895475159e-07 0.0008950300855 
0.00048976968944 0.00020291384741 0.00010258126316 4.8650635848e-05 2.2780885641e-05 1.0195117809e-05 4.7164555975e-06 1.9581145076e-06 9.9575345694e-07 
3.3891347872e-07 2.7322011963e-07 1.5499584244e-07 1.902196622e-07 4.020141407e-07 9.1837808942e-07 0.0003989147793 0.00022116175738 9.1380774567e-05 
4.6297644882e-05 2.1983401722e-05 1.0328672964e-05 4.612767086e-06 2.1419115349e-06 8.8715048441e-07 4.5273944621e-07 1.5193675106e-07 1.3648431202e-07 
7.9505459067e-08 2.1326757314e-07 3.8258823685e-07 1.0165685727e-06 0.00017505874672 9.9683246376e-05 4.116505474e-05 2.0874289048e-05 9.9240014527e-06 
4.6495313081e-06 2.0887296143e-06 9.6042982253e-07 4.0452792771e-07 2.0054890322e-07 7.41171984e-08 6.4595210429e-08 9.2257696502e-08 1.9599344153e-07 
4.4165281335e-07 1.1932515671e-06 7.6902028382e-05 4.3446776404e-05 1.785614079e-05 9.0836603683e-06 4.3290313815e-06 2.0360338424e-06 9.1052184215e-07 
4.2463884973e-07 1.7707903312e-07 9.4377837609e-08 4.4508609738e-08 5.3991884023e-08 1.0110200743e-07 2.2036341794e-07 5.0449330082e-07 1.4112444222e-06 
3.315500912e-05 1.9800060604e-05 8.2316408843e-06 4.1608139033e-06 1.982366838e-06 9.2631970401e-07 4.2689083205e-07 2.0381642734e-07 1.1198006166e-07 
8.3710939138e-08 6.7061077832e-08 9.1854562794e-08 1.09045625e-07 2.7742426687e-07 5.7306173855e-07 1.6607401344e-06 1.5270614609e-05 7.9603543964e-06 
3.1891057526e-06 1.6590774995e-06 8.0671470664e-07 4.1951301624e-07 2.4246963904e-07 1.9023894673e-07 1.6860040424e-07 1.5697843191e-07 1.5659029748e-07 
1.3935925549e-07 2.0065199495e-07 2.8356636078e-07 7.1050179524e-07 2.0091608744e-06 7.261285191e-06 4.514086181e-06 2.075366281e-06 1.0210667091e-06 
6.6974007386e-07 4.6759500148e-07 4.4339020748e-07 4.0880337347e-07 3.9317041987e-07 3.7889688079e-07 3.4831464106e-07 3.6469849646e-07 3.0282007156e-07 
5.2900898069e-07 7.6750724917e-07 2.2985490086e-06 6.4257491427e-06 2.2315083896e-06 1.1464614222e-06 1.1476648606e-06 1.0294477054e-06 1.0195357459e-06 
9.7377235934e-07 9.4143793268e-07 9.0217677406e-07 8.5948951271e-07 8.2396079976e-07 7.6474681365e-07 7.7066225588e-07 7.0518630402e-07 1.1852137567e-06 
2.9680445484e-06 6.3695784515e-06 2.9810025333e-06 3.0928671027e-06 2.3654943631e-06 2.494906232e-06 2.3171948214e-06 2.2842346951e-06 2.184721144e-06 
2.1012358465e-06 2.01441099e-06 1.8961594901e-06 1.8454485333e-06 1.6342761752e-06 1.8312096283e-06 1.5109864069e-06 3.3765330018e-06 1.0544438823e-05 
6.5162673093e-06 5.7074481917e-06 5.8136187406e-06 5.5881153257e-06 5.4790470913e-06 5.2953788728e-06 5.1174754263e-06 4.9175662811e-06 4.701864954e-06 
4.4864113746e-06 4.2236431551e-06 4.0354865414e-06 3.6444752907e-06 3.8364243051e-06 5.5830260509e-06 2.0293705594e-05 1.8047446257e-05 1.6127276705e-05 
1.6675908785e-05 1.5935529228e-05 1.5713641724e-05 1.5185641212e-05 1.4713930054e-05 1.4158886362e-05 1.3553582164e-05 1.2961139523e-05 1.2188080509e-05 
1.1706449804e-05 1.0487874128e-05 1.0788549917e-05 1.0964650514e-05 
Continuous%20global%20L2-projection%20|p^*-p^h|_L2 1 256 double
0.1199071618 0.078053757344 0.024419174686 0.014013746779 0.0055623191358 0.00293190339 0.0010907171702 0.00062783301278 0.00021228069917 
0.00016243427156 6.707403555e-05 6.3220097335e-05 3.964112048e-05 3.4559458026e-05 2.6664227754e-05 2.1231496177e-05 0.078052452262 0.011775936536 
0.0052147665339 0.001825663044 0.0013574040261 0.00043765987523 0.00038951774135 0.00016116422558 0.00014664429939 8.6191937302e-05 7.2324379378e-05 
5.1678622866e-05 4.218535965e-05 3.2699149436e-05 2.7492743048e-05 2.1406634303e-05 0.024418180679 0.0052147499002 0.001335873241 0.00078634825846 
0.00045251178095 0.00031328515472 0.0001946261635 0.00014705252095 0.00010238982021 7.9342022898e-05 5.9829170536e-05 4.7314698813e-05 3.7534684151e-05 
3.0177277162e-05 2.5333580558e-05 1.9342948993e-05 0.014013183983 0.0018256135705 0.00078634562938 0.00037561151507 0.00027246088711 0.00016268101241 
0.00014278994852 0.00010101730113 8.3413850479e-05 6.3663631943e-05 5.1587195364e-05 4.1034827597e-05 3.3631724692e-05 2.7300322438e-05 2.3317948991e-05 
1.8218767186e-05 0.0055620507522 0.0013573858345 0.00045250469124 0.00027246111632 0.00012271847113 0.0001031862705 7.9212144938e-05 7.141745524e-05 
5.8555413354e-05 4.9608554934e-05 4.0920643847e-05 3.4144586077e-05 2.8540999936e-05 2.3738414251e-05 2.0657413896e-05 1.6157559586e-05 0.0029317755765 
0.00043765122385 0.00031328448603 0.00016268024095 0.00010318632379 5.8797612186e-05 5.2394251946e-05 4.4966866711e-05 4.15266881e-05 3.626967027e-05 
3.1805831787e-05 2.7349795749e-05 2.3672053105e-05 2.0116081454e-05 1.7928876448e-05 1.4239382188e-05 0.0010906608236 0.0003895134503 0.00019462520322 
0.00014278999004 7.9212042531e-05 5.2394281193e-05 3.5299276745e-05 3.085033305e-05 2.7991625042e-05 2.6042345605e-05 2.3681460317e-05 2.1261754585e-05 
1.8994278411e-05 1.657700234e-05 1.5170984844e-05 1.2171699205e-05 0.00062780796653 0.00016116300551 0.00014705256337 0.00010101714424 7.141752333e-05 
4.4966829598e-05 3.0850365237e-05 2.2804416284e-05 2.001673596e-05 1.8482825287e-05 1.7423591617e-05 1.6143781572e-05 1.4929284315e-05 1.3365298035e-05 
1.2591544684e-05 1.0237063455e-05 0.00021226445026 0.00014664440924 0.00010238935254 8.3413981329e-05 5.8555300319e-05 4.1526748699e-05 2.7991575363e-05 
2.0016735517e-05 1.5637619759e-05 1.3764979837e-05 1.2854988527e-05 1.2151838746e-05 1.1542343496e-05 1.0583927017e-05 1.0269823594e-05 8.4458723506e-06 
0.00016243640116 8.6188560695e-05 7.9342878318e-05 6.3663354575e-05 4.9608757316e-05 3.6269591292e-05 2.6042453683e-05 1.8482819829e-05 1.3765069887e-05 
1.1128166973e-05 9.9071251211e-06 9.2499526795e-06 8.8976554173e-06 8.2990838026e-06 8.271378876e-06 6.8742960434e-06 6.7017749827e-05 7.2329045469e-05 
5.9827477486e-05 5.1587754405e-05 4.092032491e-05 3.1805986591e-05 2.368129549e-05 1.7423584415e-05 1.2854846088e-05 9.9069597281e-06 8.2318840007e-06 
7.3468111859e-06 6.9711972829e-06 6.5128159128e-06 6.629383844e-06 5.5451236784e-06 6.3279276202e-05 5.1667685384e-05 4.7317859668e-05 4.1034177079e-05 
3.4145164303e-05 2.7349668025e-05 2.126205955e-05 1.6143845878e-05 1.2152160223e-05 9.2501501389e-06 7.3473335655e-06 6.2080678382e-06 5.6495854567e-06 
5.215957044e-06 5.3048015963e-06 4.484709748e-06 3.9413517067e-05 4.2196681026e-05 3.7531287002e-05 3.3632563878e-05 2.8540528286e-05 2.3672173308e-05 