# vtk DataFile Version 4.2
vtk output
ASCII
DATASET UNSTRUCTURED_GRID
POINTS 355 double
0 0 0 0.015625 0 0 0 0.015625 0 
0.015625 0.015625 0 0.0625 0 0 0.078125 0 0 
0.0625 0.015625 0 0.078125 0.015625 0 0.125 0 0 
0.15625 0 0 0.125 0.03125 0 0.15625 0.03125 0 
0.1875 0 0 0.25 0 0 0.1875 0.0625 0 
0.25 0.0625 0 0.3125 0 0 0.3125 0.0625 0 
0.375 0 0 0.375 0.0625 0 0.4375 0 0 
0.4375 0.0625 0 0.5 0 0 0.5 0.0625 0 
0.5625 0 0 0.5625 0.0625 0 0.625 0 0 
0.625 0.0625 0 0.6875 0 0 0.6875 0.0625 0 
0.75 0 0 0.75 0.0625 0 0.8125 0 0 
0.8125 0.0625 0 0.875 0 0 0.875 0.0625 0 
0.9375 0 0 0.9375 0.0625 0 1 0 0 
1 0.0625 0 0 0.0625 0 0.015625 0.0625 0 
0 0.078125 0 0.015625 0.078125 0 0.0625 0.0625 0 
0.078125 0.0625 0 0.0625 0.078125 0 0.078125 0.078125 0 
0.125 0.0625 0 0.15625 0.0625 0 0.125 0.09375 0 
0.15625 0.09375 0 0.1875 0.125 0 0.25 0.125 0 
0.3125 0.125 0 0.375 0.125 0 0.4375 0.125 0 
0.5 0.125 0 0.5625 0.125 0 0.625 0.125 0 
0.6875 0.125 0 0.75 0.125 0 0.8125 0.125 0 
0.875 0.125 0 0.9375 0.125 0 1 0.125 0 
0 0.125 0 0.03125 0.125 0 0 0.15625 0 
0.03125 0.15625 0 0.0625 0.125 0 0.09375 0.125 0 
0.0625 0.15625 0 0.09375 0.15625 0 0.125 0.125 0 
0.15625 0.125 0 0.125 0.15625 0 0.15625 0.15625 0 
0.1875 0.1875 0 0.25 0.1875 0 0.3125 0.1875 0 
0.375 0.1875 0 0.4375 0.1875 0 0.5 0.1875 0 
0.5625 0.1875 0 0.625 0.1875 0 0.6875 0.1875 0 
0.75 0.1875 0 0.8125 0.1875 0 0.875 0.1875 0 
0.9375 0.1875 0 1 0.1875 0 0 0.1875 0 
0.0625 0.1875 0 0 0.25 0 0.0625 0.25 0 
0.125 0.1875 0 0.125 0.25 0 0.1875 0.25 0 
0.25 0.25 0 0.3125 0.25 0 0.375 0.25 0 
0.4375 0.25 0 0.5 0.25 0 0.5625 0.25 0 
0.625 0.25 0 0.6875 0.25 0 0.75 0.25 0 
0.8125 0.25 0 0.875 0.25 0 0.9375 0.25 0 
1 0.25 0 0 0.3125 0 0.0625 0.3125 0 
0.125 0.3125 0 0.1875 0.3125 0 0.25 0.3125 0 
0.3125 0.3125 0 0.375 0.3125 0 0.4375 0.3125 0 
0.5 0.3125 0 0.5625 0.3125 0 0.625 0.3125 0 
0.6875 0.3125 0 0.75 0.3125 0 0.8125 0.3125 0 
0.875 0.3125 0 0.9375 0.3125 0 1 0.3125 0 
0 0.375 0 0.0625 0.375 0 0.125 0.375 0 
0.1875 0.375 0 0.25 0.375 0 0.3125 0.375 0 
0.375 0.375 0 0.4375 0.375 0 0.5 0.375 0 
0.5625 0.375 0 0.625 0.375 0 0.6875 0.375 0 
0.75 0.375 0 0.8125 0.375 0 0.875 0.375 0 
0.9375 0.375 0 1 0.375 0 0 0.4375 0 
0.0625 0.4375 0 0.125 0.4375 0 0.1875 0.4375 0 
0.25 0.4375 0 0.3125 0.4375 0 0.375 0.4375 0 
0.4375 0.4375 0 0.5 0.4375 0 0.5625 0.4375 0 
0.625 0.4375 0 0.6875 0.4375 0 0.75 0.4375 0 
0.8125 0.4375 0 0.875 0.4375 0 0.9375 0.4375 0 
1 0.4375 0 0 0.5 0 0.0625 0.5 0 
0.125 0.5 0 0.1875 0.5 0 0.25 0.5 0 
0.3125 0.5 0 0.375 0.5 0 0.4375 0.5 0 
0.5 0.5 0 0.5625 0.5 0 0.625 0.5 0 
0.6875 0.5 0 0.75 0.5 0 0.8125 0.5 0 
0.875 0.5 0 0.9375 0.5 0 1 0.5 0 
0 0.5625 0 0.0625 0.5625 0 0.125 0.5625 0 
0.1875 0.5625 0 0.25 0.5625 0 0.3125 0.5625 0 
0.375 0.5625 0 0.4375 0.5625 0 0.5 0.5625 0 
0.5625 0.5625 0 0.625 0.5625 0 0.6875 0.5625 0 
0.75 0.5625 0 0.8125 0.5625 0 0.875 0.5625 0 
0.9375 0.5625 0 1 0.5625 0 0 0.625 0 
0.0625 0.625 0 0.125 0.625 0 0.1875 0.625 0 
0.25 0.625 0 0.3125 0.625 0 0.375 0.625 0 
0.4375 0.625 0 0.5 0.625 0 0.5625 0.625 0 
0.625 0.625 0 0.6875 0.625 0 0.75 0.625 0 
0.8125 0.625 0 0.875 0.625 0 0.9375 0.625 0 
1 0.625 0 0 0.6875 0 0.0625 0.6875 0 
0.125 0.6875 0 0.1875 0.6875 0 0.25 0.6875 0 
0.3125 0.6875 0 0.375 0.6875 0 0.4375 0.6875 0 
0.5 0.6875 0 0.5625 0.6875 0 0.625 0.6875 0 
0.6875 0.6875 0 0.75 0.6875 0 0.8125 0.6875 0 
0.875 0.6875 0 0.9375 0.6875 0 1 0.6875 0 
0 0.75 0 0.0625 0.75 0 0.125 0.75 0 
0.1875 0.75 0 0.25 0.75 0 0.3125 0.75 0 
0.375 0.75 0 0.4375 0.75 0 0.5 0.75 0 
0.5625 0.75 0 0.625 0.75 0 0.6875 0.75 0 
0.75 0.75 0 0.8125 0.75 0 0.875 0.75 0 
0.9375 0.75 0 1 0.75 0 0 0.8125 0 
0.0625 0.8125 0 0.125 0.8125 0 0.1875 0.8125 0 
0.25 0.8125 0 0.3125 0.8125 0 0.375 0.8125 0 
0.4375 0.8125 0 0.5 0.8125 0 0.5625 0.8125 0 
0.625 0.8125 0 0.6875 0.8125 0 0.75 0.8125 0 
0.8125 0.8125 0 0.875 0.8125 0 0.9375 0.8125 0 
1 0.8125 0 0 0.875 0 0.0625 0.875 0 
0.125 0.875 0 0.1875 0.875 0 0.25 0.875 0 
0.3125 0.875 0 0.375 0.875 0 0.4375 0.875 0 
0.5 0.875 0 0.5625 0.875 0 0.625 0.875 0 
0.6875 0.875 0 0.75 0.875 0 0.8125 0.875 0 
0.875 0.875 0 0.9375 0.875 0 1 0.875 0 
0 0.9375 0 0.0625 0.9375 0 0.125 0.9375 0 
0.1875 0.9375 0 0.25 0.9375 0 0.3125 0.9375 0 
0.375 0.9375 0 0.4375 0.9375 0 0.5 0.9375 0 
0.5625 0.9375 0 0.625 0.9375 0 0.6875 0.9375 0 
0.75 0.9375 0 0.8125 0.9375 0 0.875 0.9375 0 
0.9375 0.9375 0 1 0.9375 0 0 1 0 
0.0625 1 0 0.125 1 0 0.1875 1 0 
0.25 1 0 0.3125 1 0 0.375 1 0 
0.4375 1 0 0.5 1 0 0.5625 1 0 
0.625 1 0 0.6875 1 0 0.75 1 0 
0.8125 1 0 0.875 1 0 0.9375 1 0 
1 1 0 0.03125 0 0 0.046875 0 0 
0.03125 0.015625 0 0.046875 0.015625 0 0.03125 0.0625 0 
0.046875 0.0625 0 0.03125 0.078125 0 0.046875 0.078125 0 
0.09375 0 0 0.09375 0.03125 0 0.09375 0.0625 0 
0.09375 0.09375 0 0.1875 0.03125 0 0.1875 0.09375 0 
0.1875 0.15625 0 0 0.03125 0 0.015625 0.03125 0 
0 0.046875 0 0.015625 0.046875 0 0.0625 0.03125 0 
0.078125 0.03125 0 0.0625 0.046875 0 0.078125 0.046875 0 
0.03125 0.03125 0 0.046875 0.03125 0 0.03125 0.046875 0 
0.046875 0.046875 0 0 0.09375 0 0.03125 0.09375 0 
0.0625 0.09375 0 0.03125 0.1875 0 0.09375 0.1875 0 
0.15625 0.1875 0 0.09375 0.015625 0 0.09375 0.078125 0 
0.09375 0.046875 0 0.015625 0.09375 0 0.078125 0.09375 0 
0.046875 0.09375 0 
CELLS 310 1550
4 0 1 3 2 
4 4 5 7 6 
4 8 9 11 10 
4 12 13 15 14 
4 13 16 17 15 
4 16 18 19 17 
4 18 20 21 19 
4 20 22 23 21 
4 22 24 25 23 
4 24 26 27 25 
4 26 28 29 27 
4 28 30 31 29 
4 30 32 33 31 
4 32 34 35 33 
4 34 36 37 35 
4 36 38 39 37 
4 40 41 43 42 
4 44 45 47 46 
4 48 49 51 50 
4 14 15 53 52 
4 15 17 54 53 
4 17 19 55 54 
4 19 21 56 55 
4 21 23 57 56 
4 23 25 58 57 
4 25 27 59 58 
4 27 29 60 59 
4 29 31 61 60 
4 31 33 62 61 
4 33 35 63 62 
4 35 37 64 63 
4 37 39 65 64 
4 66 67 69 68 
4 70 71 73 72 
4 74 75 77 76 
4 52 53 79 78 
4 53 54 80 79 
4 54 55 81 80 
4 55 56 82 81 
4 56 57 83 82 
4 57 58 84 83 
4 58 59 85 84 
4 59 60 86 85 
4 60 61 87 86 
4 61 62 88 87 
4 62 63 89 88 
4 63 64 90 89 
4 64 65 91 90 
4 92 93 95 94 
4 93 96 97 95 
4 96 78 98 97 
4 78 79 99 98 
4 79 80 100 99 
4 80 81 101 100 
4 81 82 102 101 
4 82 83 103 102 
4 83 84 104 103 
4 84 85 105 104 
4 85 86 106 105 
4 86 87 107 106 
4 87 88 108 107 
4 88 89 109 108 
4 89 90 110 109 
4 90 91 111 110 
4 94 95 113 112 
4 95 97 114 113 
4 97 98 115 114 
4 98 99 116 115 
4 99 100 117 116 
4 100 101 118 117 
4 101 102 119 118 
4 102 103 120 119 
4 103 104 121 120 
4 104 105 122 121 
4 105 106 123 122 
4 106 107 124 123 
4 107 108 125 124 
4 108 109 126 125 
4 109 110 127 126 
4 110 111 128 127 
4 112 113 130 129 
4 113 114 131 130 
4 114 115 132 131 
4 115 116 133 132 
4 116 117 134 133 
4 117 118 135 134 
4 118 119 136 135 
4 119 120 137 136 
4 120 121 138 137 
4 121 122 139 138 
4 122 123 140 139 
4 123 124 141 140 
4 124 125 142 141 
4 125 126 143 142 
4 126 127 144 143 
4 127 128 145 144 
4 129 130 147 146 
4 130 131 148 147 
4 131 132 149 148 
4 132 133 150 149 
4 133 134 151 150 
4 134 135 152 151 
4 135 136 153 152 
4 136 137 154 153 
4 137 138 155 154 
4 138 139 156 155 
4 139 140 157 156 
4 140 141 158 157 
4 141 142 159 158 
4 142 143 160 159 
4 143 144 161 160 
4 144 145 162 161 
4 146 147 164 163 
4 147 148 165 164 
4 148 149 166 165 
4 149 150 167 166 
4 150 151 168 167 
4 151 152 169 168 
4 152 153 170 169 
4 153 154 171 170 
4 154 155 172 171 
4 155 156 173 172 
4 156 157 174 173 
4 157 158 175 174 
4 158 159 176 175 
4 159 160 177 176 
4 160 161 178 177 
4 161 162 179 178 
4 163 164 181 180 
4 164 165 182 181 
4 165 166 183 182 
4 166 167 184 183 
4 167 168 185 184 
4 168 169 186 185 
4 169 170 187 186 
4 170 171 188 187 
4 171 172 189 188 
4 172 173 190 189 
4 173 174 191 190 
4 174 175 192 191 
4 175 176 193 192 
4 176 177 194 193 
4 177 178 195 194 
4 178 179 196 195 
4 180 181 198 197 
4 181 182 199 198 
4 182 183 200 199 
4 183 184 201 200 
4 184 185 202 201 
4 185 186 203 202 
4 186 187 204 203 
4 187 188 205 204 
4 188 189 206 205 
4 189 190 207 206 
4 190 191 208 207 
4 191 192 209 208 
4 192 193 210 209 
4 193 194 211 210 
4 194 195 212 211 
4 195 196 213 212 
4 197 198 215 214 
4 198 199 216 215 
4 199 200 217 216 
4 200 201 218 217 
4 201 202 219 218 
4 202 203 220 219 
4 203 204 221 220 
4 204 205 222 221 
4 205 206 223 222 
4 206 207 224 223 
4 207 208 225 224 
4 208 209 226 225 
4 209 210 227 226 
4 210 211 228 227 
4 211 212 229 228 
4 212 213 230 229 
4 214 215 232 231 
4 215 216 233 232 
4 216 217 234 233 
4 217 218 235 234 
4 218 219 236 235 
4 219 220 237 236 
4 220 221 238 237 
4 221 222 239 238 
4 222 223 240 239 
4 223 224 241 240 
4 224 225 242 241 
4 225 226 243 242 
4 226 227 244 243 
4 227 228 245 244 
4 228 229 246 245 
4 229 230 247 246 
4 231 232 249 248 
4 232 233 250 249 
4 233 234 251 250 
4 234 235 252 251 
4 235 236 253 252 
4 236 237 254 253 
4 237 238 255 254 
4 238 239 256 255 
4 239 240 257 256 
4 240 241 258 257 
4 241 242 259 258 
4 242 243 260 259 
4 243 244 261 260 
4 244 245 262 261 
4 245 246 263 262 
4 246 247 264 263 
4 248 249 266 265 
4 249 250 267 266 
4 250 251 268 267 
4 251 252 269 268 
4 252 253 270 269 
4 253 254 271 270 
4 254 255 272 271 
4 255 256 273 272 
4 256 257 274 273 
4 257 258 275 274 
4 258 259 276 275 
4 259 260 277 276 
4 260 261 278 277 
4 261 262 279 278 
4 262 263 280 279 
4 263 264 281 280 
4 265 266 283 282 
4 266 267 284 283 
4 267 268 285 284 
4 268 269 286 285 
4 269 270 287 286 
4 270 271 288 287 
4 271 272 289 288 
4 272 273 290 289 
4 273 274 291 290 
4 274 275 292 291 
4 275 276 293 292 
4 276 277 294 293 
4 277 278 295 294 
4 278 279 296 295 
4 279 280 297 296 
4 280 281 298 297 
4 282 283 300 299 
4 283 284 301 300 
4 284 285 302 301 
4 285 286 303 302 
4 286 287 304 303 
4 287 288 305 304 
4 288 289 306 305 
4 289 290 307 306 
4 290 291 308 307 
4 291 292 309 308 
4 292 293 310 309 
4 293 294 311 310 
4 294 295 312 311 
4 295 296 313 312 
4 296 297 314 313 
4 297 298 315 314 
4 316 317 319 318 
4 320 321 323 322 
4 67 70 72 69 
4 324 8 10 325 
4 326 48 50 327 
4 71 74 76 73 
4 9 12 328 11 
4 49 14 329 51 
4 75 52 330 77 
4 331 332 334 333 
4 335 336 338 337 
4 10 11 49 48 
4 339 340 342 341 
4 325 10 48 326 
4 11 328 14 49 
4 343 344 67 66 
4 345 327 71 70 
4 50 51 75 74 
4 344 345 70 67 
4 327 50 74 71 
4 51 329 52 75 
4 68 69 346 92 
4 72 73 347 93 
4 76 77 348 96 
4 69 72 93 346 
4 73 76 96 347 
4 77 330 78 348 
4 1 316 318 3 
4 41 320 322 43 
4 332 339 341 334 
4 317 4 6 319 
4 321 44 46 323 
4 340 335 337 342 
4 5 324 349 7 
4 45 326 350 47 
4 336 325 351 338 
4 2 3 332 331 
4 6 7 336 335 
4 318 319 340 339 
4 3 318 339 332 
4 319 6 335 340 
4 7 349 325 336 
4 333 334 41 40 
4 337 338 45 44 
4 341 342 321 320 
4 334 341 320 41 
4 342 337 44 321 
4 338 351 326 45 
4 42 43 352 343 
4 46 47 353 345 
4 322 323 354 344 
4 43 322 344 352 
4 323 46 345 354 
4 47 350 327 353 

CELL_TYPES 310
9
9
9
9
9
9
9
9
9
9
9
9
9
9
9
9
9
9
9
9
9
9
9
9
9
9
9
9
9
9
9
9
9
9
9
9
9
9
9
9
9
9
9
9
9
9
9
9
9
9
9
9
9
9
9
9
9
9
9
9
9
9
9
9
9
9
9
9
9
9
9
9
9
9
9
9
9
9
9
9
9
9
9
9
9
9
9
9
9
9
9
9
9
9
9
9
9
9
9
9
9
9
9
9
9
9
9
9
9
9
9
9
9
9
9
9
9
9
9
9
9
9
9
9
9
9
9
9
9
9
9
9
9
9
9
9
9
9
9
9
9
9
9
9
9
9
9
9
9
9
9
9
9
9
9
9
9
9
9
9
9
9
9
9
9
9
9
9
9
9
9
9
9
9
9
9
9
9
9
9
9
9
9
9
9
9
9
9
9
9
9
9
9
9
9
9
9
9
9
9
9
9
9
9
9
9
9
9
9
9
9
9
9
9
9
9
9
9
9
9
9
9
9
9
9
9
9
9
9
9
9
9
9
9
9
9
9
9
9
9
9
9
9
9
9
9
9
9
9
9
9
9
9
9
9
9
9
9
9
9
9
9
9
9
9
9
9
9
9
9
9
9
9
9
9
9
9
9
9
9
9
9
9
9
9
9
9
9
9
9
9
9
9
9
9
9
9
9
9
9
9
9
9
9
9
9
9
9
9
9

CELL_DATA 310
FIELD FieldData 25
Continuous%20global%20L2-projection%20(u^*,p^*)-(u,p)| 1 310 double
1.0508331357 0.0061777880711 0.00077552101516 0.00084331671656 0.00032208822694 0.00029163137549 0.00013548821754 0.00016829257449 0.00014008514146 
0.00014978755516 0.00014493482507 0.00014691124011 0.00014595364519 0.00014645327057 0.00014565401486 0.0001426435632 0.0061779938363 0.00020246491632 
0.00021502883129 0.00060098519592 0.00024342970378 0.00024716722617 0.00014155149496 0.0001649228554 0.00014560938371 0.00015110752042 0.00014723112322 
0.0001481348162 0.00014695406054 0.00014747841836 0.00014594065022 0.00014850085112 0.00077317778545 0.00021442308176 0.00020657336669 0.00025580846484 
0.00012366391957 0.00016728244973 0.00013463821348 0.00014838588453 0.00014298425395 0.0001460088469 0.00014512152879 0.00014583525983 0.00014557848235 
0.00014607218611 0.0001453173873 0.00014574732107 0.00083989097165 0.00059728626868 0.00025438318879 0.00018259068085 0.00015052852637 0.00015119487654 
0.00014714555333 0.00014742319044 0.00014669852664 0.00014671895737 0.00014649062727 0.00014651398905 0.00014624023597 0.00014661211749 0.00014561186583 
0.00014695181084 0.00031657980723 0.00024215326957 0.00012271454348 0.00015051297951 0.00014195553329 0.00014667495042 0.00014482881597 0.00014593261914 
0.0001456941431 0.00014599083317 0.00014596188802 0.00014610293783 0.00014596102758 0.00014633118789 0.00014556459492 0.00014642848465 0.00029178304198 
0.00024623607888 0.00016706920027 0.00015114940392 0.0001466677333 0.00014694833774 0.00014629606843 0.00014629891184 0.00014619046589 0.00014621306536 
0.00014617157242 0.00014623751306 0.00014608091814 0.00014642205065 0.00014565423791 0.00014662520135 0.00013280905505 0.00014143582228 0.00013453338496 
0.0001471162381 0.00014481548821 0.00014629144096 0.00014576586226 0.00014606769256 0.00014599231218 0.00014608668714 0.00014607058905 0.00014615752038 
0.00014603647716 0.00014635287171 0.00014568935129 0.0001464999771 0.0001677591246 0.00016471291808 0.00014834664984 0.00014740479892 0.00014592339845 
0.0001462942399 0.00014606598674 0.00014613253177 0.00014609827628 0.00014613267754 0.00014611731222 0.00014618288074 0.0001460714603 0.00014635463422 
0.00014575092604 0.00014650347226 0.00013901699034 0.00014553378347 0.00014296174719 0.00014668809085 0.00014568815026 0.00014618638841 0.00014599039942 
0.00014609756772 0.00014607171533 0.00014611516481 0.00014610584142 0.0001461700048 0.00014607541364 0.00014632969381 0.00014579649749 0.00014646665318 
0.00014905902422 0.00015102005212 0.00014598777848 0.00014671454397 0.00014598630477 0.00014621075376 0.00014608484819 0.00014613185157 0.00014611470793 
0.00014614108839 0.00014613315497 0.00014618584279 0.00014610570159 0.00014632187463 0.00014586473191 0.00014641901765 0.00014433218345 0.00014713497754 
0.00014511487756 0.00014648226366 0.00014596144367 0.00014616926748 0.00014606997804 0.00014611663505 0.00014610561869 0.00014613322761 0.00014612976813 
0.00014618312311 0.00014611338733 0.00014631637718 0.00014589425714 0.00014646656673 0.00014612507 0.0001481106191 0.00014580161296 0.00014651955462 
0.00014609832848 0.00014623921373 0.00014615675062 0.00014618312489 0.00014616948806 0.00014618553909 0.00014618219682 0.00014622073683 0.0001461754771 
0.0001463225257 0.00014602064896 0.00014630803439 0.00014596953595 0.00014678615098 0.0001456092015 0.00014622313377 0.00014597446625 0.00014608219767 
0.00014604280688 0.00014607484343 0.00014607922669 0.00014610873481 0.0001461158545 0.00014617864694 0.0001461320246 0.00014634167488 0.0001459669478 
0.00014668931771 0.00014490256881 0.00014765148691 0.00014600888322 0.00014667670286 0.00014634072536 0.00014645424942 0.00014637119615 0.00014637491783 
0.00014634470268 0.00014633523055 0.0001463252712 0.00014633007596 0.0001463412784 0.00014639906171 0.00014638447775 0.00014591268219 0.00014828243673 
0.00014575904113 0.00014560565911 0.00014569152023 0.00014573902074 0.00014577341344 0.00014581989413 0.00014586320646 0.0001459043192 0.00014596055238 
0.00014598393221 0.00014609466773 0.00014603812085 0.00014641431708 0.00014611064241 0.00014816477895 0.00013822330774 0.00015001922571 0.00014662925347 
0.00014825756039 0.00014746029047 0.0001476902456 0.00014745665831 0.00014740947595 0.00014728673637 0.00014717073306 0.00014711637831 0.00014691264272 
0.00014710316967 0.00014645433813 0.0001477945929 0.00014362538362 0.027605358019 0.00057428634864 0.00031218204081 0.001768554938 0.00014749073491 
0.00013779462532 0.00040054279634 0.00034681578711 9.7998611329e-05 0.027605309518 0.00057429732259 0.00031240099786 0.0022049976281 0.00045078175443 
0.00047989794404 0.0017671572217 0.00014732899809 0.00013810815815 0.0004503484227 0.00010267894363 0.00011611227587 0.00039807097595 0.00034400588659 
9.688257605e-05 0.0004764579328 0.00011323107524 9.8671509158e-05 0.048981384954 0.0013220827861 0.0055858974845 0.013208330464 0.00028633158401 
0.0011475006645 0.0027082061289 0.00012710163219 0.00025952015235 0.048981338689 0.0013221126203 0.0055858237136 0.012269659026 0.0029147979202 
0.00064042508089 0.013208416847 0.00028636656502 0.0011474604611 0.0029147554328 0.00057634244977 0.00035881140323 0.0027079633824 0.0001269764112 
0.00025951726923 0.00064016237493 0.00035863027682 0.00010152176194 
Continuous%20global%20L2-projection%20eta^rec 1 310 double
0.11326475555 4.3185697908 1.2684173111 0.80683528945 1.018818047 0.81183153922 1.0209435191 0.71951019115 0.70622336338 
0.52557432347 0.44953108833 0.35567783724 0.29897317973 0.24776925164 0.21449863575 0.18379270092 4.3184698433 1.0557051132 
0.96826151823 0.82889293043 1.1060546349 0.86912019284 0.98110441974 0.73729094435 0.67939501287 0.5244541604 0.44004975821 
0.35376931649 0.29664767023 0.24688233109 0.21494885463 0.17919935589 1.2684397766 0.96754992669 0.67655415651 0.74405476189 
1.0326931949 0.79075208149 0.82784418829 0.65938467418 0.58202120931 0.46674221836 0.38980664817 0.32003365258 0.26966660173 
0.22695319396 0.19814715221 0.16365635836 0.80705787757 0.82834534886 0.74426237733 0.76624674945 0.78948029708 0.70750924007 
0.65912123863 0.56776876481 0.48704924988 0.40883729196 0.34481539863 0.29144264224 0.24964779453 0.21391170007 0.18928242915 
0.15937382715 1.0177590615 1.104121693 1.0305917477 0.78800022926 0.59610784724 0.5070589868 0.47771646263 0.42994219602 
0.3829749331 0.33431438285 0.29153186476 0.25378332573 0.22273182536 0.19461011187 0.17497786335 0.14827089047 0.81471405079 
0.86946314286 0.79206601092 0.70668211505 0.50727586546 0.38140859659 0.3389532408 0.31661721959 0.2950570322 0.26995847062 
0.24480183047 0.22036945552 0.19872983782 0.17748053024 0.16222056228 0.13999732138 1.016027269 0.97581249058 0.82432112136 
0.65684186474 0.47759725295 0.33952655307 0.27113575861 0.24450989256 0.23200653009 0.21963844616 0.20618525246 0.19133563888 
0.17696606942 0.16132783517 0.1497451409 0.1310739802 0.71983396525 0.73478444499 0.65823187642 0.56564382644 0.43051188452 
0.31862360163 0.24678457191 0.21212626039 0.1971067175 0.18801649348 0.17967523184 0.17015131356 0.16029018102 0.14854379168 
0.13945572087 0.12395263842 0.69738217203 0.67141272053 0.57865731424 0.48558188099 0.38498436077 0.29916742515 0.23719523806 
0.20070745636 0.1818380972 0.1713715655 0.16381472793 0.15625989047 0.14854907972 0.13907078246 0.13143094228 0.11826680829 
0.52253577348 0.52043226823 0.46707116443 0.40989314555 0.33919575154 0.2772074929 0.2285102782 0.19598650703 0.17619615193 
0.16413875194 0.1557600058 0.14835059942 0.14122655558 0.132792191 0.12575959397 0.11420524999 0.44562996511 0.43736530986 
0.3934715382 0.3503033042 0.30107159464 0.25686477908 0.22013729636 0.19323272467 0.17475507007 0.1621646498 0.15293835458 
0.14502927735 0.13773257945 0.12953374486 0.12259548551 0.1121258185 0.36009632858 0.35774257312 0.33024287995 0.30273105942 
0.26901491136 0.23795740909 0.21077957302 0.18939186431 0.17325544787 0.16116713124 0.15166375045 0.14338480404 0.13576530048 
0.12756050707 0.12049342888 0.11055685687 0.31030685562 0.30959419653 0.28923657723 0.2705080955 0.24735342711 0.22553063067 
0.20549456664 0.18868193898 0.17492146756 0.16369055068 0.15422235352 0.14561103214 0.13763796262 0.12901313164 0.12186375771 
0.11236322152 0.27170332368 0.26775237683 0.25446234188 0.24200482866 0.22598766008 0.21053863225 0.19570407782 0.18258370164 
0.1711324652 0.16116983383 0.15226986151 0.14392941353 0.13592168504 0.12755231835 0.11996468934 0.11131499015 0.25667994731 
0.25910914961 0.24759585379 0.23967717897 0.22814330224 0.21684419769 0.20535473924 0.19453976158 0.18440209086 0.17490677473 
0.16594230617 0.1570040874 0.14856812713 0.13870093379 0.13170784147 0.1220907034 0.25635019944 0.24373936333 0.23025057407 
0.22770547859 0.21791435772 0.21064427987 0.20173817783 0.19344422077 0.18505537349 0.17676857932 0.16870868885 0.15999631431 
0.15228460012 0.14191760957 0.13622877745 0.13083070428 2.0041589186 1.4478932986 1.0718852393 1.0473765315 0.89044910357 
0.82710612204 0.89858467575 1.0520644208 0.94054416956 2.0041620752 1.4479572013 1.0719279241 2.5166479058 0.90160737149 
0.79376561738 1.0477871572 0.89029583857 0.82806136825 0.90159394775 1.1105820593 0.8109699832 0.90223483947 1.0529356058 
0.93979693712 0.79312926348 0.81051682737 0.80076928804 1.0930803294 1.8664005233 1.7601412458 2.9406388727 1.4191004629 
2.3209376864 3.0693456892 0.9197342387 0.85143499591 1.0930819227 1.8663346984 1.7601200209 0.7056166172 1.7048913915 
1.076210167 2.9406451411 1.418596282 2.3210657735 1.704899743 2.2698187652 0.80680631001 3.0710443344 0.91971567124 
0.85168462734 1.0762107372 0.80669807066 1.0172690146 
Continuous%20global%20L2-projection%20|(u^*,p^*)-(u^h,p^h)| 1 310 double
0.015905340392 3.5964964066e-05 2.2294515632e-06 2.6430444766e-06 1.3336313211e-06 1.862802739e-07 1.2363302753e-07 3.293314591e-08 2.0991925154e-08 
9.1476239769e-09 5.7921861516e-09 3.3295725115e-09 2.2309045263e-09 1.4745281331e-09 1.0832963022e-09 7.2876001668e-10 3.5963888243e-05 3.1809057184e-08 
1.9097648649e-07 1.3117860635e-06 7.40997705e-07 1.4833238493e-07 9.0107591721e-08 3.0175798603e-08 1.8077335551e-08 8.7676701581e-09 5.4427046205e-09 
3.2606443625e-09 2.18257007e-09 1.46226467e-09 1.0804703264e-09 7.4559082693e-10 2.2306577172e-06 1.9100017219e-07 1.7995279778e-08 2.5243055636e-07 
1.9522783834e-07 6.5418998889e-08 4.315852793e-08 1.9293717007e-08 1.1783413571e-08 6.5204419455e-09 4.1339588474e-09 2.6218549711e-09 1.7871456311e-09 
1.2278664376e-09 9.1902591075e-10 6.054675269e-10 2.6465336899e-06 1.3103394433e-06 2.5309175572e-07 6.1508724903e-08 4.2256939497e-08 2.6456090602e-08 
1.8361078836e-08 1.132051009e-08 7.2808327023e-09 4.671716031e-09 3.1179618992e-09 2.1306056813e-09 1.5140466021e-09 1.0842910938e-09 8.3390261035e-10 
5.7816620616e-10 1.3288158346e-06 7.3845380127e-07 1.94554668e-07 4.2159244512e-08 1.4600743034e-08 8.9124398191e-09 7.2551314007e-09 5.4588733141e-09 
4.0680829692e-09 2.9481025642e-09 2.1560108348e-09 1.5848382287e-09 1.191732534e-09 8.9142754185e-10 7.1014522313e-10 4.9874934875e-10 1.8787801296e-07 
1.4871075561e-07 6.5826922817e-08 2.6512414192e-08 8.9553727807e-09 4.2769614108e-09 3.1793381756e-09 2.6816282678e-09 2.2630796168e-09 1.845443417e-09 
1.4823167842e-09 1.1765472465e-09 9.396304779e-10 7.3711929409e-10 6.0784961245e-10 4.4436912862e-10 1.2276478508e-07 8.9656278207e-08 4.3131481704e-08 
1.8414461873e-08 7.3218247073e-09 3.2095610788e-09 1.9302922737e-09 1.5282872127e-09 1.3514381251e-09 1.1918493749e-09 1.0340811639e-09 8.7715344848e-10 
7.3968614428e-10 6.0621895261e-10 5.1628075774e-10 3.8909539206e-10 3.3341466205e-08 3.0382748825e-08 1.9533087086e-08 1.1434941625e-08 5.5674603376e-09 
2.7528561116e-09 1.5688019418e-09 1.129533623e-09 9.5980446477e-10 8.6205924798e-10 7.7760333864e-10 6.8880892693e-10 6.0387066273e-10 5.1227107491e-10 
4.4664254384e-10 3.4778138458e-10 2.0943824024e-08 1.8102052451e-08 1.1960916615e-08 7.4369463498e-09 4.2194136839e-09 2.3792650193e-09 1.4360886796e-09 
1.0041155524e-09 8.1145759977e-10 7.1190381222e-10 6.4316840072e-10 5.7869047932e-10 5.1716082426e-10 4.4813541972e-10 3.9607311027e-10 3.1656046263e-10 
9.3837326675e-09 8.9711867773e-09 6.7885538393e-09 4.8804656139e-09 3.1477475805e-09 2.0101750434e-09 1.3247946631e-09 9.5464174864e-10 7.6016467518e-10 
6.5169320528e-10 5.803566779e-10 5.2076148683e-10 4.6685958892e-10 4.0825080955e-10 3.6235429476e-10 2.9526375459e-10 5.9988646353e-09 5.667262202e-09 
4.4387122194e-09 3.3865723983e-09 2.413229447e-09 1.7051715039e-09 1.2240973976e-09 9.2687348833e-10 7.4761230203e-10 6.3608838363e-10 5.595005667e-10 
4.9770135852e-10 4.4406326195e-10 3.8854021108e-10 3.4433267665e-10 2.8487318223e-10 3.6497947504e-09 3.5687679528e-09 2.9841123399e-09 2.4523589849e-09 
1.8932509583e-09 1.4514283836e-09 1.1191108826e-09 8.9026713857e-10 7.3550512216e-10 6.2903904527e-10 5.5087214459e-10 4.8702588257e-10 4.3193830767e-10 
3.7717436444e-10 3.3298188477e-10 2.7713575732e-10 2.6195157814e-09 2.5816647284e-09 2.2314400419e-09 1.9239374776e-09 1.5846989805e-09 1.297942592e-09 
1.0627106123e-09 8.8450294486e-10 7.5113738271e-10 6.5029652575e-10 5.7083628873e-10 5.0330292382e-10 4.4477157043e-10 3.8663363853e-10 3.4094622749e-10 
2.8741909252e-10 1.9412301662e-09 1.9036991248e-09 1.7012552976e-09 1.5258643083e-09 1.3157138735e-09 1.1290817471e-09 9.6433649422e-10 8.2984223729e-10 
7.2083732547e-10 6.3223399935e-10 5.5808279123e-10 4.9307661302e-10 4.3498676283e-10 3.7878145783e-10 3.3203055519e-10 2.8066967736e-10 1.8030164322e-09 
1.7584470204e-09 1.6104518345e-09 1.4935348844e-09 1.3428506331e-09 1.2008208634e-09 1.0658480522e-09 9.4616640611e-10 8.4071652413e-10 7.4785106063e-10 
6.6543864714e-10 5.8897306696e-10 5.2112457417e-10 4.5004957028e-10 4.0037003215e-10 3.486773134e-10 1.52577726e-09 1.5806590541e-09 1.3688638818e-09 
1.3437490636e-09 1.2195864361e-09 1.1316177467e-09 1.0287785524e-09 9.3708104665e-10 8.4891461871e-10 7.6632006175e-10 6.9036552434e-10 6.1358569106e-10 
5.5026473839e-10 4.7010366015e-10 4.3604058431e-10 3.744463619e-10 0.00069264431622 4.1872908475e-07 8.5324346795e-07 4.4236515014e-06 3.260047499e-07 
5.2504256425e-08 5.4394432178e-07 2.6389219284e-07 3.6858870856e-08 0.00069264273814 4.1863750253e-07 8.5417766132e-07 5.6519766947e-06 1.4316654866e-06 
5.0113191285e-07 4.4265175297e-06 3.2589400678e-07 5.2894622542e-08 1.4319132266e-06 9.1300257492e-08 1.600686083e-07 5.4513947465e-07 2.6308374945e-07 
3.7101287232e-08 4.9889590313e-07 1.5986416901e-07 3.4617665637e-08 0.0069321206265 3.2753473442e-06 4.9599913574e-05 0.00022011555982 1.3246665654e-07 
1.5853118656e-06 8.2153137176e-06 3.3598617947e-08 1.7889017937e-07 0.0069321094719 3.2754450771e-06 4.9599426829e-05 0.00028416509601 8.9841363253e-06 
8.9507477507e-07 0.00022011308038 1.3248427563e-07 1.585259539e-06 8.9840788097e-06 4.2657398255e-07 1.6381076346e-07 8.2139775656e-06 3.3610686446e-08 
1.7897445744e-07 8.9474428858e-07 1.6374320584e-07 5.7399576158e-08 
Continuous%20global%20L2-projection%20|div%20u^*|_L2 1 310 double
0.027344460466 0.0019983459349 0.00025255405182 0.00022575819326 0.00019294618301 9.024344338e-05 5.262394991e-05 2.2923826582e-05 1.9154477742e-05 
1.3535382255e-05 1.3646285119e-05 1.2200436271e-05 1.1800679782e-05 1.0659706329e-05 1.0326839035e-05 9.9877626761e-06 0.0019983557687 0.00012580069783 
7.332752543e-05 0.0002208559295 0.00014288439604 7.776200637e-05 3.5590024103e-05 1.8495854847e-05 8.3018268467e-06 6.2615731641e-06 4.540426869e-06 
4.4215413637e-06 4.0140155025e-06 3.7298725945e-06 3.5351283152e-06 3.8611113287e-06 0.00025198559592 7.1847121373e-05 7.8169315148e-05 7.9401235338e-05 
5.2411488715e-05 2.6833229309e-05 1.3475671686e-05 6.2043716307e-06 3.6208013238e-06 2.2540537241e-06 2.0384079898e-06 1.830839881e-06 1.6813455647e-06 
1.7064825296e-06 1.2903343942e-06 1.8891547733e-06 0.00022172691317 0.00021305098814 7.6424445346e-05 6.5603069373e-06 7.2217140243e-06 2.3702056243e-06 
2.4228656252e-06 8.1505793602e-07 1.1610772596e-06 8.0490168375e-07 8.7049854271e-07 7.6282585909e-07 7.5735573214e-07 6.6546363042e-07 7.5223994085e-07 
1.1310552591e-06 0.0001844100638 0.00014150789457 5.0673979739e-05 6.188532477e-06 3.8260278806e-06 1.2951433947e-06 1.1578294433e-06 3.7446129197e-07 
5.1422550213e-07 3.4715017459e-07 3.7101988045e-07 3.4704133815e-07 2.9918246309e-07 4.0561630419e-07 3.4531424811e-07 8.5051592963e-07 9.1822565034e-05 
7.5383216601e-05 2.6390308246e-05 2.7540512913e-06 1.6096771272e-06 6.0613658905e-07 4.9575318177e-07 1.549340851e-07 2.2049240827e-07 1.4275465045e-07 
1.6466296619e-07 1.350588813e-07 1.7275509617e-07 1.7646927082e-07 4.0553223497e-07 9.2112932755e-07 4.6037491749e-05 3.549278794e-05 1.2747629757e-05 
1.6672677642e-06 9.1377444383e-07 3.3784291993e-07 2.6367487424e-07 8.2026996433e-08 1.054165882e-07 6.8402677013e-08 6.9886469997e-08 8.2689851798e-08 
8.515088495e-08 2.0972925282e-07 3.8212498775e-07 1.0151400472e-06 2.02058074e-05 1.6750815004e-05 5.8778651751e-06 6.1153514279e-07 3.4434019894e-07 
1.3356572467e-07 1.01558199e-07 3.5750371649e-08 4.3728258996e-08 2.9334943776e-08 3.667434071e-08 4.5163266957e-08 9.3354432509e-08 1.9572861351e-07 
4.4198641472e-07 1.1938546852e-06 1.0379691203e-05 7.2570337252e-06 2.7189634631e-06 4.7358586076e-07 2.3201038826e-07 9.8990794999e-08 6.6486971433e-08 
3.5730986714e-08 3.6109829174e-08 3.1488320688e-08 3.5899211433e-08 4.9309015689e-08 1.0123385404e-07 2.2016379472e-07 5.0440153082e-07 1.4109917593e-06 
4.5415444787e-06 3.6311005142e-06 1.2319374968e-06 1.656037647e-07 1.3365832403e-07 7.9112578876e-08 8.8587000376e-08 7.7974089124e-08 7.5800470302e-08 
7.5041898265e-08 6.53387252e-08 9.1579618196e-08 1.0905573133e-07 2.774475515e-07 5.7310530092e-07 1.6608600513e-06 4.5728034924e-06 1.7920849842e-06 
7.7424296241e-07 3.7035099285e-07 2.0830294786e-07 2.0229300164e-07 1.7725471461e-07 1.7397514595e-07 1.6558085437e-07 1.5612222304e-07 1.5651145304e-07 
1.3929344114e-07 2.0065131189e-07 2.8355479409e-07 7.1049011992e-07 2.0091190848e-06 4.1759965989e-06 1.6899326922e-06 9.4219732188e-07 4.508389228e-07 
5.0598789819e-07 4.2431533806e-07 4.3319097818e-07 4.0717266807e-07 3.9260540844e-07 3.7888747957e-07 3.4827026425e-07 3.6470994071e-07 3.0281697516e-07 
5.2901452695e-07 7.6751621912e-07 2.2985747524e-06 5.6333402915e-06 2.1485496969e-06 1.1839389292e-06 1.152465909e-06 1.0268679505e-06 1.019740016e-06 