# vtk DataFile Version 5.1
vtk output
ASCII
DATASET UNSTRUCTURED_GRID
POINTS 81 double
0 0 0 0.25 0 0 0 0.25 0 
0.25 0.25 0 0.5 0 0 0.5 0.25 0 
0.75 0 0 0.75 0.25 0 1 0 0 
1 0.25 0 1.25 0 0 1.25 0.25 0 
1.5 0 0 1.5 0.25 0 1.75 0 0 
1.75 0.25 0 2 0 0 2 0.25 0 
0 0.5 0 0.25 0.5 0 0.5 0.5 0 
0.75 0.5 0 1 0.5 0 1.25 0.5 0 
1.5 0.5 0 1.75 0.5 0 2 0.5 0 
0 0.75 0 0.25 0.75 0 0.5 0.75 0 
0.75 0.75 0 1 0.75 0 1.25 0.75 0 
1.5 0.75 0 1.75 0.75 0 2 0.75 0 
0 1 0 0.25 1 0 0.5 1 0 
0.75 1 0 1 1 0 1.25 1 0 
1.5 1 0 1.75 1 0 2 1 0 
0 1.25 0 0.25 1.25 0 0.5 1.25 0 
0.75 1.25 0 1 1.25 0 1.25 1.25 0 
1.5 1.25 0 1.75 1.25 0 2 1.25 0 
0 1.5 0 0.25 1.5 0 0.5 1.5 0 
0.75 1.5 0 1 1.5 0 1.25 1.5 0 
1.5 1.5 0 1.75 1.5 0 2 1.5 0 
0 1.75 0 0.25 1.75 0 0.5 1.75 0 
0.75 1.75 0 1 1.75 0 1.25 1.75 0 
1.5 1.75 0 1.75 1.75 0 2 1.75 0 
0 2 0 0.25 2 0 0.5 2 0 
0.75 2 0 1 2 0 1.25 2 0 
1.5 2 0 1.75 2 0 2 2 0 

CELLS 65 256
OFFSETS vtktypeint64
0 4 8 12 16 20 24 28 32 
36 40 44 48 52 56 60 64 68 
72 76 80 84 88 92 96 100 104 
108 112 116 120 124 128 132 136 140 
144 148 152 156 160 164 168 172 176 
180 184 188 192 196 200 204 208 212 
216 220 224 228 232 236 240 244 248 
252 256 
CONNECTIVITY vtktypeint64
0 1 3 2 1 4 5 3 4 
6 7 5 6 8 9 7 8 10 
11 9 10 12 13 11 12 14 15 
13 14 16 17 15 2 3 19 18 
3 5 20 19 5 7 21 20 7 
9 22 21 9 11 23 22 11 13 
24 23 13 15 25 24 15 17 26 
25 18 19 28 27 19 20 29 28 
20 21 30 29 21 22 31 30 22 
23 32 31 23 24 33 32 24 25 
34 33 25 26 35 34 27 28 37 
36 28 29 38 37 29 30 39 38 
30 31 40 39 31 32 41 40 32 
33 42 41 33 34 43 42 34 35 
44 43 36 37 46 45 37 38 47 
46 38 39 48 47 39 40 49 48 
40 41 50 49 41 42 51 50 42 
43 52 51 43 44 53 52 45 46 
55 54 46 47 56 55 47 48 57 
56 48 49 58 57 49 50 59 58 
50 51 60 59 51 52 61 60 52 
53 62 61 54 55 64 63 55 56 
65 64 56 57 66 65 57 58 67 
66 58 59 68 67 59 60 69 68 
60 61 70 69 61 62 71 70 63 
64 73 72 64 65 74 73 65 66 
75 74 66 67 76 75 67 68 77 
76 68 69 78 77 69 70 79 78 
70 71 80 79 
CELL_TYPES 64
9
9
9
9
9
9
9
9
9
9
9
9
9
9
9
9
9
9
9
9
9
9
9
9
9
9
9
9
9
9
9
9
9
9
9
9
9
9
9
9
9
9
9
9
9
9
9
9
9
9
9
9
9
9
9
9
9
9
9
9
9
9
9
9

CELL_DATA 64
FIELD FieldData 3
a(e,e)^0.5,%20e=u-u^h 1 64 double
0.66764053192 1.3373792021 1.3373792021 0.66764053192 0.66764053192 1.3373792021 1.3373792021 0.66764053192 0.58964203449 
1.1605624889 1.1605624889 0.58964203449 0.58964203449 1.1605624889 1.1605624889 0.58964203449 0.51344038405 0.98403469714 
0.98403469714 0.51344038405 0.51344038405 0.98403469714 0.98403469714 0.51344038405 0.4399702004 0.80798521892 0.80798521892 
0.4399702004 0.4399702004 0.80798521892 0.80798521892 0.4399702004 0.3708584321 0.63281338247 0.63281338247 0.3708584321 
0.3708584321 0.63281338247 0.63281338247 0.3708584321 0.30904308151 0.4595239649 0.4595239649 0.30904308151 0.30904308151 
0.4595239649 0.4595239649 0.30904308151 0.25978592328 0.29149374924 0.29149374924 0.25978592328 0.25978592328 0.29149374924 
0.29149374924 0.25978592328 0.2312558665 0.14789108021 0.14789108021 0.2312558665 0.2312558665 0.14789108021 0.14789108021 
0.2312558665 
a(u,u)^0.5 1 64 double
1.4786404929 0.69673125603 0.69678979201 1.4786093923 1.4786093923 0.69678979201 0.69673125603 1.4786404929 1.1556585176 
0.54454266941 0.54458857355 1.1556339117 1.1556339117 0.54458857355 0.54454266941 1.1556585176 0.97824654271 0.46094666245 
0.46098554526 0.97822566345 0.97822566345 0.46098554526 0.46094666245 0.97824654271 0.80092623577 0.37739388511 0.37742573069 
0.80090912884 0.80090912884 0.37742573069 0.37739388511 0.80092623577 0.62377569747 0.29392111814 0.29394591921 0.62376237303 
0.62376237303 0.29394591921 0.29392111814 0.62377569747 0.44699676707 0.21062344884 0.21064122254 0.446987218 0.446987218 
0.21064122254 0.21062344884 0.44699676707 0.27131674465 0.12784358394 0.12785437173 0.2713109487 0.2713109487 0.12785437173 
0.12784358394 0.27131674465 0.1025480901 0.048320332495 0.048324410062 0.10254589937 0.10254589937 0.048324410062 0.048320332495 
0.1025480901 
a(u^h,u^h)^0.5 1 64 double
0.66657661651 1.3378185924 1.33816599 0.66622339007 0.66622339007 1.33816599 1.3378185924 0.66657661651 0.58873816128 
1.1609422758 1.1612425208 0.5884354283 0.5884354283 1.1612425208 1.1609422758 0.58873816128 0.51269662132 0.98435539139 
0.984609429 0.51244609258 0.51244609258 0.984609429 0.98435539139 0.51269662132 0.43938829611 0.80824681383 0.80845498779 
0.43919062223 0.43919062223 0.80845498779 0.80824681383 0.43938829611 0.37043956227 0.63301578779 0.63317817705 0.3702950346 
0.3702950346 0.63317817705 0.63301578779 0.37043956227 0.30878478119 0.45966680361 0.45978367713 0.30869230239 0.30869230239 
0.45978367713 0.45966680361 0.30878478119 0.25967240304 0.29157614606 0.29164817511 0.25962658439 0.25962658439 0.29164817511 
0.29157614606 0.25967240304 0.23123714628 0.14791277518 0.14794416914 0.2312217059 0.2312217059 0.14794416914 0.14791277518 
0.23123714628 
POINT_DATA 81
FIELD FieldData 4
q 3 81 double
-0.032226110222 0.99986641013 0 4.4399870234 0.70748455188 0 -0.028052722265 1.0000074738 0 
3.8849821126 0.70747328863 0 6.2711563703 5.7541853103e-05 0 5.4872513717 4.3088467809e-05 0 
4.4359784773 -0.70757734211 0 3.8814793856 -0.70755578776 0 3.5527136788e-15 -1.0005776944 0 
5.1902926401e-15 -1.0005888296 0 -4.4359784773 -0.70757734211 0 -3.8814793856 -0.70755578776 0 
-6.2711563703 5.7541853107e-05 0 -5.4872513717 4.3088467807e-05 0 -4.4399870234 0.70748455188 0 
-3.8849821126 0.70747328863 0 0.032226110222 0.99986641013 0 0.028052722265 1.0000074738 0 
-0.024041223339 0.99999911856 0 3.3299851459 0.70747007255 0 4.7033557572 4.2292135587e-05 0 
3.3269807648 -0.70755376984 0 5.051514762e-15 -1.0005862618 0 -3.3269807648 -0.70755376984 0 
-4.7033557572 4.2292135586e-05 0 -3.3299851459 0.70747007255 0 0.024041223339 0.99999911856 0 
-0.020038717835 1.0000015803 0 2.7749880173 0.70746939807 0 3.9194622433 4.1766075867e-05 0 
2.7724833588 -0.70755279179 0 4.2743586448e-15 -1.0005853358 0 -2.7724833588 -0.70755279179 0 
-3.9194622433 4.1766075864e-05 0 -2.7749880173 0.70746939807 0 0.020038717835 1.0000015803 0 
-0.016028562856 0.99999991147 0 2.219989973 0.70746903092 0 3.1355695852 4.1791708518e-05 0 
2.217986429 -0.70755256401 0 2.8657631823e-15 -1.0005847623 0 -2.217986429 -0.70755256401 0 
-3.1355695852 4.1791708515e-05 0 -2.219989973 0.70746903092 0 0.016028562856 0.99999991147 0 
-0.012022669869 1.0000003808 0 1.6649925703 0.70746891627 0 2.3516770412 4.173192698e-05 0 
1.663489748 -0.70755238031 0 2.3592239273e-15 -1.0005845953 0 -1.663489748 -0.70755238031 0 
-2.3516770412 4.1731926978e-05 0 -1.6649925703 0.70746891627 0 0.012022669869 1.0000003808 0 
-0.0080144711816 0.9999999794 0 1.1099949412 0.70746884083 0 1.5677846774 4.1751346263e-05 0 
1.1089931314 -0.70755233859 0 1.6445178552e-15 -1.0005844839 0 -1.1089931314 -0.70755233859 0 
-1.5677846774 4.1751346261e-05 0 -1.1099949412 0.70746884083 0 0.0080144711816 0.9999999794 0 
-0.0040075711395 1.0000000579 0 0.55499750706 0.70746881901 0 0.78389231894 4.1742662328e-05 0 
0.55449656249 -0.70755230458 0 7.7021722333e-16 -1.0005844536 0 -0.55449656249 -0.70755230458 0 
-0.78389231894 4.1742662326e-05 0 -0.55499750706 0.70746881901 0 0.0040075711395 1.0000000579 0 
0 1.0000002125 0 2.3111159333e-33 0.70746882078 0 1.853207499e-20 4.1730523009e-05 0 
-6.284326727e-16 -0.70755228765 0 4.4434875878e-16 -1.0005844522 0 6.284326727e-16 -0.70755228765 0 
-2.4651903288e-32 4.1730523008e-05 0 0 0.70746882078 0 0 1.0000002125 0 

q_x 1 81 double
-0.032226110222 4.4399870234 -0.028052722265 3.8849821126 6.2711563703 5.4872513717 4.4359784773 3.8814793856 3.5527136788e-15 
5.1902926401e-15 -4.4359784773 -3.8814793856 -6.2711563703 -5.4872513717 -4.4399870234 -3.8849821126 0.032226110222 0.028052722265 
-0.024041223339 3.3299851459 4.7033557572 3.3269807648 5.051514762e-15 -3.3269807648 -4.7033557572 -3.3299851459 0.024041223339 
-0.020038717835 2.7749880173 3.9194622433 2.7724833588 4.2743586448e-15 -2.7724833588 -3.9194622433 -2.7749880173 0.020038717835 
-0.016028562856 2.219989973 3.1355695852 2.217986429 2.8657631823e-15 -2.217986429 -3.1355695852 -2.219989973 0.016028562856 
-0.012022669869 1.6649925703 2.3516770412 1.663489748 2.3592239273e-15 -1.663489748 -2.3516770412 -1.6649925703 0.012022669869 
-0.0080144711816 1.1099949412 1.5677846774 1.1089931314 1.6445178552e-15 -1.1089931314 -1.5677846774 -1.1099949412 0.0080144711816 
-0.0040075711395 0.55499750706 0.78389231894 0.55449656249 7.7021722333e-16 -0.55449656249 -0.78389231894 -0.55499750706 0.0040075711395 
0 2.3111159333e-33 1.853207499e-20 -6.284326727e-16 4.4434875878e-16 6.284326727e-16 -2.4651903288e-32 0 0 

q_y 1 81 double
0.99986641013 0.70748455188 1.0000074738 0.70747328863 5.7541853103e-05 4.3088467809e-05 -0.70757734211 -0.70755578776 -1.0005776944 
-1.0005888296 -0.70757734211 -0.70755578776 5.7541853107e-05 4.3088467807e-05 0.70748455188 0.70747328863 0.99986641013 1.0000074738 
0.99999911856 0.70747007255 4.2292135587e-05 -0.70755376984 -1.0005862618 -0.70755376984 4.2292135586e-05 0.70747007255 0.99999911856 
1.0000015803 0.70746939807 4.1766075867e-05 -0.70755279179 -1.0005853358 -0.70755279179 4.1766075864e-05 0.70746939807 1.0000015803 
0.99999991147 0.70746903092 4.1791708518e-05 -0.70755256401 -1.0005847623 -0.70755256401 4.1791708515e-05 0.70746903092 0.99999991147 
1.0000003808 0.70746891627 4.173192698e-05 -0.70755238031 -1.0005845953 -0.70755238031 4.1731926978e-05 0.70746891627 1.0000003808 
0.9999999794 0.70746884083 4.1751346263e-05 -0.70755233859 -1.0005844839 -0.70755233859 4.1751346261e-05 0.70746884083 0.9999999794 
1.0000000579 0.70746881901 4.1742662328e-05 -0.70755230458 -1.0005844536 -0.70755230458 4.1742662326e-05 0.70746881901 1.0000000579 
1.0000002125 0.70746882078 4.1730523009e-05 -0.70755228765 -1.0005844522 -0.70755228765 4.1730523008e-05 0.70746882078 1.0000002125 

u 1 81 double
1.9999918844 1.4149409124 1.7500006254 1.2380714125 8.5354940732e-05 7.336713024e-05 -1.415108336 -1.2382175029 -2.0011705017 
-1.7510240424 -1.415108336 -1.2382175029 8.5354940729e-05 7.3367130237e-05 1.4149409124 1.2380714125 1.9999918844 1.7500006254 
1.5000005991 1.0612035975 6.2672619071e-05 -1.0613288141 -1.5008772288 -1.0613288141 6.2672619069e-05 1.0612035975 1.5000005991 
1.2500001648 0.88433616446 5.2198539738e-05 -0.88444053133 -1.2507307747 -0.88444053133 5.2198539735e-05 0.88433616446 1.2500001648 
1.0000001532 0.70746887287 4.1743606774e-05 -0.7075523557 -1.0005845315 -0.7075523557 4.1743606771e-05 0.70746887287 1.0000001532 
0.75000003084 0.53060162795 3.1309803329e-05 -0.53066424565 -0.75043835963 -0.53066424565 3.1309803327e-05 0.53060162795 0.75000003084 
0.5000000353 0.35373441147 2.0871043215e-05 -0.35377615371 -0.5002922292 -0.35377615371 2.0871043215e-05 0.35373441147 0.5000000353 
0.25000000114 0.17686720307 1.0436472132e-05 -0.17688807571 -0.25014611094 -0.17688807571 1.0436472132e-05 0.17686720307 0.25000000114 
0 0 0 0 0 0 0 0 0 

