<?xml version="1.0"?>
<VTKFile type="UnstructuredGrid" version="0.1" byte_order="LittleEndian" header_type="UInt32" compressor="vtkZLibDataCompressor">
  <UnstructuredGrid>
    <Piece NumberOfPoints="81" NumberOfCells="64">
      <PointData>
        <DataArray type="Float64" Name="Mode Shape" NumberOfComponents="3" format="ascii" RangeMin="0" RangeMax="102.95688766">
          0 0 -64.940029835 0 0 -61.739677548
          0 0 -29.579583636 0 0 28.976333296
          0 0 1.8662021543 0 0 7.0250900018
          0 0 53.00259317 0 0 65.947936464
          0 0 0 0 0 -102.95688766
          0 0 -87.462648181 0 0 -22.32554573
          0 0 -20.400561692 0 0 -13.078987113
          0 0 31.252347411 0 0 -9.934076737
          0 0 53.350374034 0 0 0
          0 0 -83.98377001 0 0 -29.911678372
          0 0 -35.735804908 0 0 5.0123881091
          0 0 -7.6724124125 0 0 -9.3583626172
          0 0 36.393861647 0 0 -4.1774618327
          0 0 0 0 0 -11.396085794
          0 0 -26.847146304 0 0 -19.154106782
          0 0 -21.924189583 0 0 -2.4946333414
          0 0 16.23207095 0 0 -16.883324454
          0 0 19.655910243 0 0 0
          0 0 -41.408710046 0 0 -21.811403041
          0 0 17.473846186 0 0 -8.4425549455
          0 0 -24.090567246 0 0 -8.3188150446
          0 0 5.0789945919 0 0 15.024619353
          0 0 0 0 0 55.492224822
          0 0 2.3231838318 0 0 4.7882373809
          0 0 17.27899794 0 0 -14.839650005
          0 0 -13.420553352 0 0 17.321175397
          0 0 12.303489635 0 0 0
          0 0 18.185487964 0 0 70.15995861
          0 0 32.070773559 0 0 36.526634009
          0 0 6.7275293182 0 0 2.3276343777
          0 0 36.685797526 0 0 -4.858788919
          0 0 0 0 0 81.736784771
          0 0 24.193768295 0 0 86.682292626
          0 0 36.422761305 0 0 16.94341758
          0 0 29.500959776 0 0 28.160673221
          0 0 49.116579551 0 0 0
          0 0 71.064403358 0 0 16.761676108
          0 0 101.75054108 0 0 70.615809592
          0 0 11.481077458 0 0 -2.7546580566
          0 0 14.40553206 0 0 47.355250236
          0 0 0
        </DataArray>
      </PointData>
      <CellData>
      </CellData>
      <Points>
        <DataArray type="Float64" Name="Points" NumberOfComponents="3" format="ascii" RangeMin="0" RangeMax="2.8284271247">
          0 0 0 0 0.25 0
          0 0.5 0 0 0.75 0
          0 1 0 0 1.25 0
          0 1.5 0 0 1.75 0
          0 2 0 0.25 0 0
          0.25 0.25 0 0.25 0.5 0
          0.25 0.75 0 0.25 1 0
          0.25 1.25 0 0.25 1.5 0
          0.25 1.75 0 0.25 2 0
          0.5 0 0 0.5 0.25 0
          0.5 0.5 0 0.5 0.75 0
          0.5 1 0 0.5 1.25 0
          0.5 1.5 0 0.5 1.75 0
          0.5 2 0 0.75 0 0
          0.75 0.25 0 0.75 0.5 0
          0.75 0.75 0 0.75 1 0
          0.75 1.25 0 0.75 1.5 0
          0.75 1.75 0 0.75 2 0
          1 0 0 1 0.25 0
          1 0.5 0 1 0.75 0
          1 1 0 1 1.25 0
          1 1.5 0 1 1.75 0
          1 2 0 1.25 0 0
          1.25 0.25 0 1.25 0.5 0
          1.25 0.75 0 1.25 1 0
          1.25 1.25 0 1.25 1.5 0
          1.25 1.75 0 1.25 2 0
          1.5 0 0 1.5 0.25 0
          1.5 0.5 0 1.5 0.75 0
          1.5 1 0 1.5 1.25 0
          1.5 1.5 0 1.5 1.75 0
          1.5 2 0 1.75 0 0
          1.75 0.25 0 1.75 0.5 0
          1.75 0.75 0 1.75 1 0
          1.75 1.25 0 1.75 1.5 0
          1.75 1.75 0 1.75 2 0
          2 0 0 2 0.25 0
          2 0.5 0 2 0.75 0
          2 1 0 2 1.25 0
          2 1.5 0 2 1.75 0
          2 2 0
        </DataArray>
      </Points>
      <Cells>
        <DataArray type="Int64" Name="connectivity" format="ascii" RangeMin="0" RangeMax="80">
          0 9 10 1 1 10
          11 2 2 11 12 3
          3 12 13 4 4 13
          14 5 5 14 15 6
          6 15 16 7 7 16
          17 8 9 18 19 10
          10 19 20 11 11 20
          21 12 12 21 22 13
          13 22 23 14 14 23
          24 15 15 24 25 16
          16 25 26 17 18 27
          28 19 19 28 29 20
          20 29 30 21 21 30
          31 22 22 31 32 23
          23 32 33 24 24 33
          34 25 25 34 35 26
          27 36 37 28 28 37
          38 29 29 38 39 30
          30 39 40 31 31 40
          41 32 32 41 42 33
          33 42 43 34 34 43
          44 35 36 45 46 37
          37 46 47 38 38 47
          48 39 39 48 49 40
          40 49 50 41 41 50
          51 42 42 51 52 43
          43 52 53 44 45 54
          55 46 46 55 56 47
          47 56 57 48 48 57
          58 49 49 58 59 50
          50 59 60 51 51 60
          61 52 52 61 62 53
          54 63 64 55 55 64
          65 56 56 65 66 57
          57 66 67 58 58 67
          68 59 59 68 69 60
          60 69 70 61 61 70
          71 62 63 72 73 64
          64 73 74 65 65 74
          75 66 66 75 76 67
          67 76 77 68 68 77
          78 69 69 78 79 70
          70 79 80 71
        </DataArray>
        <DataArray type="Int64" Name="offsets" format="ascii" RangeMin="4" RangeMax="256">
          4 8 12 16 20 24
          28 32 36 40 44 48
          52 56 60 64 68 72
          76 80 84 88 92 96
          100 104 108 112 116 120
          124 128 132 136 140 144
          148 152 156 160 164 168
          172 176 180 184 188 192
          196 200 204 208 212 216
          220 224 228 232 236 240
          244 248 252 256
        </DataArray>
        <DataArray type="UInt8" Name="types" format="ascii" RangeMin="9" RangeMax="9">
          9 9 9 9 9 9
          9 9 9 9 9 9
          9 9 9 9 9 9
          9 9 9 9 9 9
          9 9 9 9 9 9
          9 9 9 9 9 9
          9 9 9 9 9 9
          9 9 9 9 9 9
          9 9 9 9 9 9
          9 9 9 9 9 9
          9 9 9 9
        </DataArray>
      </Cells>
    </Piece>
  </UnstructuredGrid>
</VTKFile>
