# vtk DataFile Version 5.1
vtk output
ASCII
DATASET UNSTRUCTURED_GRID
POINTS 81 double
0 0 0 0 0.25 0 0 0.5 0 
0 0.75 0 0 1 0 0 1.25 0 
0 1.5 0 0 1.75 0 0 2 0 
0.25 0 0 0.25 0.25 0 0.25 0.5 0 
0.25 0.75 0 0.25 1 0 0.25 1.25 0 
0.25 1.5 0 0.25 1.75 0 0.25 2 0 
0.5 0 0 0.5 0.25 0 0.5 0.5 0 
0.5 0.75 0 0.5 1 0 0.5 1.25 0 
0.5 1.5 0 0.5 1.75 0 0.5 2 0 
0.75 0 0 0.75 0.25 0 0.75 0.5 0 
0.75 0.75 0 0.75 1 0 0.75 1.25 0 
0.75 1.5 0 0.75 1.75 0 0.75 2 0 
1 0 0 1 0.25 0 1 0.5 0 
1 0.75 0 1 1 0 1 1.25 0 
1 1.5 0 1 1.75 0 1 2 0 
1.25 0 0 1.25 0.25 0 1.25 0.5 0 
1.25 0.75 0 1.25 1 0 1.25 1.25 0 
1.25 1.5 0 1.25 1.75 0 1.25 2 0 
1.5 0 0 1.5 0.25 0 1.5 0.5 0 
1.5 0.75 0 1.5 1 0 1.5 1.25 0 
1.5 1.5 0 1.5 1.75 0 1.5 2 0 
1.75 0 0 1.75 0.25 0 1.75 0.5 0 
1.75 0.75 0 1.75 1 0 1.75 1.25 0 
1.75 1.5 0 1.75 1.75 0 1.75 2 0 
2 0 0 2 0.25 0 2 0.5 0 
2 0.75 0 2 1 0 2 1.25 0 
2 1.5 0 2 1.75 0 2 2 0 

CELLS 65 256
OFFSETS vtktypeint64
0 4 8 12 16 20 24 28 32 
36 40 44 48 52 56 60 64 68 
72 76 80 84 88 92 96 100 104 
108 112 116 120 124 128 132 136 140 
144 148 152 156 160 164 168 172 176 
180 184 188 192 196 200 204 208 212 
216 220 224 228 232 236 240 244 248 
252 256 
CONNECTIVITY vtktypeint64
0 9 10 1 1 10 11 2 2 
11 12 3 3 12 13 4 4 13 
14 5 5 14 15 6 6 15 16 
7 7 16 17 8 9 18 19 10 
10 19 20 11 11 20 21 12 12 
21 22 13 13 22 23 14 14 23 
24 15 15 24 25 16 16 25 26 
17 18 27 28 19 19 28 29 20 
20 29 30 21 21 30 31 22 22 
31 32 23 23 32 33 24 24 33 
34 25 25 34 35 26 27 36 37 
28 28 37 38 29 29 38 39 30 
30 39 40 31 31 40 41 32 32 
41 42 33 33 42 43 34 34 43 
44 35 36 45 46 37 37 46 47 
38 38 47 48 39 39 48 49 40 
40 49 50 41 41 50 51 42 42 
51 52 43 43 52 53 44 45 54 
55 46 46 55 56 47 47 56 57 
48 48 57 58 49 49 58 59 50 
50 59 60 51 51 60 61 52 52 
61 62 53 54 63 64 55 55 64 
65 56 56 65 66 57 57 66 67 
58 58 67 68 59 59 68 69 60 
60 69 70 61 61 70 71 62 63 
72 73 64 64 73 74 65 65 74 
75 66 66 75 76 67 67 76 77 
68 68 77 78 69 69 78 79 70 
70 79 80 71 
CELL_TYPES 64
9
9
9
9
9
9
9
9
9
9
9
9
9
9
9
9
9
9
9
9
9
9
9
9
9
9
9
9
9
9
9
9
9
9
9
9
9
9
9
9
9
9
9
9
9
9
9
9
9
9
9
9
9
9
9
9
9
9
9
9
9
9
9
9

POINT_DATA 81
FIELD FieldData 1
Mode%20Shape 3 81 double
0 0 39.17085585 0 0 37.240422906 0 0 17.839958403 
0 0 -17.48391891 0 0 -1.1289202237 0 0 -4.2403918224 
0 0 -31.975955125 0 0 -39.784585111 0 0 0 
0 0 62.104890495 0 0 52.758145232 0 0 13.463904095 
0 0 12.303184886 0 0 7.8869374766 0 0 -18.855675314 
0 0 5.9911848025 0 0 -32.184965436 0 0 0 
0 0 50.659391701 0 0 18.039990682 0 0 21.553887457 
0 0 -3.0273981618 0 0 4.6254127325 0 0 5.6431683258 
0 0 -21.956573838 0 0 2.5192927297 0 0 0 
0 0 6.8700373316 0 0 16.191346443 0 0 11.550758187 
0 0 13.222359294 0 0 1.5018818049 0 0 -9.7945112376 
0 0 10.183423529 0 0 -11.858453843 0 0 0 
0 0 24.975553688 0 0 13.153375556 0 0 -10.545344368 
0 0 5.0893815288 0 0 14.52978447 0 0 5.0160323078 
0 0 -3.0655946202 0 0 -9.0645252055 0 0 0 
0 0 -33.480986086 0 0 -1.4060140218 0 0 -2.892802222 
0 0 -10.427390975 0 0 8.9490263342 0 0 8.0936375059 
0 0 -10.450772203 0 0 -7.4230507839 0 0 0 
0 0 -10.975419368 0 0 -42.329401148 0 0 -19.351220368 
0 0 -22.038852219 0 0 -4.0616144479 0 0 -1.4066308306 
0 0 -22.132728806 0 0 2.9302837914 0 0 0 
0 0 -49.313584431 0 0 -14.599902078 0 0 -52.296390236 
0 0 -21.976231455 0 0 -10.224571896 0 0 -17.799259514 
0 0 -16.989879155 0 0 -29.630911849 0 0 0 
0 0 -42.875499035 0 0 -10.116648794 0 0 -61.386488764 
0 0 -42.603603313 0 0 -6.9294445078 0 0 1.6591530398 
0 0 -8.6920317506 0 0 -28.568378549 0 0 0 

