# vtk DataFile Version 4.2
vtk output
ASCII
DATASET UNSTRUCTURED_GRID
POINTS 81 double
0 0 0 0 0.25 0 0 0.5 0 
0 0.75 0 0 1 0 0 1.25 0 
0 1.5 0 0 1.75 0 0 2 0 
0.25 0 0 0.25 0.25 0 0.25 0.5 0 
0.25 0.75 0 0.25 1 0 0.25 1.25 0 
0.25 1.5 0 0.25 1.75 0 0.25 2 0 
0.5 0 0 0.5 0.25 0 0.5 0.5 0 
0.5 0.75 0 0.5 1 0 0.5 1.25 0 
0.5 1.5 0 0.5 1.75 0 0.5 2 0 
0.75 0 0 0.75 0.25 0 0.75 0.5 0 
0.75 0.75 0 0.75 1 0 0.75 1.25 0 
0.75 1.5 0 0.75 1.75 0 0.75 2 0 
1 0 0 1 0.25 0 1 0.5 0 
1 0.75 0 1 1 0 1 1.25 0 
1 1.5 0 1 1.75 0 1 2 0 
1.25 0 0 1.25 0.25 0 1.25 0.5 0 
1.25 0.75 0 1.25 1 0 1.25 1.25 0 
1.25 1.5 0 1.25 1.75 0 1.25 2 0 
1.5 0 0 1.5 0.25 0 1.5 0.5 0 
1.5 0.75 0 1.5 1 0 1.5 1.25 0 
1.5 1.5 0 1.5 1.75 0 1.5 2 0 
1.75 0 0 1.75 0.25 0 1.75 0.5 0 
1.75 0.75 0 1.75 1 0 1.75 1.25 0 
1.75 1.5 0 1.75 1.75 0 1.75 2 0 
2 0 0 2 0.25 0 2 0.5 0 
2 0.75 0 2 1 0 2 1.25 0 
2 1.5 0 2 1.75 0 2 2 0 

CELLS 64 320
4 0 9 10 1 
4 1 10 11 2 
4 2 11 12 3 
4 3 12 13 4 
4 4 13 14 5 
4 5 14 15 6 
4 6 15 16 7 
4 7 16 17 8 
4 9 18 19 10 
4 10 19 20 11 
4 11 20 21 12 
4 12 21 22 13 
4 13 22 23 14 
4 14 23 24 15 
4 15 24 25 16 
4 16 25 26 17 
4 18 27 28 19 
4 19 28 29 20 
4 20 29 30 21 
4 21 30 31 22 
4 22 31 32 23 
4 23 32 33 24 
4 24 33 34 25 
4 25 34 35 26 
4 27 36 37 28 
4 28 37 38 29 
4 29 38 39 30 
4 30 39 40 31 
4 31 40 41 32 
4 32 41 42 33 
4 33 42 43 34 
4 34 43 44 35 
4 36 45 46 37 
4 37 46 47 38 
4 38 47 48 39 
4 39 48 49 40 
4 40 49 50 41 
4 41 50 51 42 
4 42 51 52 43 
4 43 52 53 44 
4 45 54 55 46 
4 46 55 56 47 
4 47 56 57 48 
4 48 57 58 49 
4 49 58 59 50 
4 50 59 60 51 
4 51 60 61 52 
4 52 61 62 53 
4 54 63 64 55 
4 55 64 65 56 
4 56 65 66 57 
4 57 66 67 58 
4 58 67 68 59 
4 59 68 69 60 
4 60 69 70 61 
4 61 70 71 62 
4 63 72 73 64 
4 64 73 74 65 
4 65 74 75 66 
4 66 75 76 67 
4 67 76 77 68 
4 68 77 78 69 
4 69 78 79 70 
4 70 79 80 71 

CELL_TYPES 64
9
9
9
9
9
9
9
9
9
9
9
9
9
9
9
9
9
9
9
9
9
9
9
9
9
9
9
9
9
9
9
9
9
9
9
9
9
9
9
9
9
9
9
9
9
9
9
9
9
9
9
9
9
9
9
9
9
9
9
9
9
9
9
9

POINT_DATA 81
FIELD FieldData 1
Mode%20Shape 3 81 double
0 0 0.21498393587 0 0 0.17602786787 0 0 0.13667456381 
0 0 0.1084041302 0 0 0.082585042816 0 0 0.060222012537 
0 0 0.039101669836 0 0 0.019695249512 0 0 0 
0 0 0.17009150456 0 0 0.14868025553 0 0 0.11978690889 
0 0 0.094476312016 0 0 0.07302266321 0 0 0.052423539217 
0 0 0.034889058619 0 0 0.016734925056 0 0 0 
0 0 0.11311539269 0 0 0.1028058937 0 0 0.084704239399 
0 0 0.06841969357 0 0 0.052155781986 0 0 0.038554283913 
0 0 0.024553394377 0 0 0.012747909495 0 0 0 
0 0 0.058094389079 0 0 0.052554583743 0 0 0.044246607236 
0 0 0.035492279051 0 0 0.027734152501 0 0 0.019917747148 
0 0 0.013324304619 0 0 0.0063226879053 0 0 0 
0 0 3.5674331945e-16 0 0 -1.2556626093e-16 0 0 7.6889993182e-16 
0 0 -4.2947429976e-18 0 0 1.7749497659e-16 0 0 3.1344672308e-16 
0 0 -3.5997069378e-16 0 0 6.3315810181e-16 0 0 0 
0 0 -0.058094389079 0 0 -0.052554583743 0 0 -0.044246607236 
0 0 -0.035492279051 0 0 -0.027734152501 0 0 -0.019917747148 
0 0 -0.013324304619 0 0 -0.0063226879053 0 0 0 
0 0 -0.11311539269 0 0 -0.1028058937 0 0 -0.084704239399 
0 0 -0.06841969357 0 0 -0.052155781986 0 0 -0.038554283913 
0 0 -0.024553394377 0 0 -0.012747909495 0 0 0 
0 0 -0.17009150456 0 0 -0.14868025553 0 0 -0.11978690889 
0 0 -0.094476312016 0 0 -0.07302266321 0 0 -0.052423539217 
0 0 -0.034889058619 0 0 -0.016734925056 0 0 0 
0 0 -0.21498393587 0 0 -0.17602786787 0 0 -0.13667456381 
0 0 -0.1084041302 0 0 -0.082585042816 0 0 -0.060222012537 
0 0 -0.039101669836 0 0 -0.019695249512 0 0 0 

