# vtk DataFile Version 5.1
vtk output
ASCII
DATASET UNSTRUCTURED_GRID
POINTS 81 double
0 0 0 0 0.25 0 0 0.5 0 
0 0.75 0 0 1 0 0 1.25 0 
0 1.5 0 0 1.75 0 0 2 0 
0.25 0 0 0.25 0.25 0 0.25 0.5 0 
0.25 0.75 0 0.25 1 0 0.25 1.25 0 
0.25 1.5 0 0.25 1.75 0 0.25 2 0 
0.5 0 0 0.5 0.25 0 0.5 0.5 0 
0.5 0.75 0 0.5 1 0 0.5 1.25 0 
0.5 1.5 0 0.5 1.75 0 0.5 2 0 
0.75 0 0 0.75 0.25 0 0.75 0.5 0 
0.75 0.75 0 0.75 1 0 0.75 1.25 0 
0.75 1.5 0 0.75 1.75 0 0.75 2 0 
1 0 0 1 0.25 0 1 0.5 0 
1 0.75 0 1 1 0 1 1.25 0 
1 1.5 0 1 1.75 0 1 2 0 
1.25 0 0 1.25 0.25 0 1.25 0.5 0 
1.25 0.75 0 1.25 1 0 1.25 1.25 0 
1.25 1.5 0 1.25 1.75 0 1.25 2 0 
1.5 0 0 1.5 0.25 0 1.5 0.5 0 
1.5 0.75 0 1.5 1 0 1.5 1.25 0 
1.5 1.5 0 1.5 1.75 0 1.5 2 0 
1.75 0 0 1.75 0.25 0 1.75 0.5 0 
1.75 0.75 0 1.75 1 0 1.75 1.25 0 
1.75 1.5 0 1.75 1.75 0 1.75 2 0 
2 0 0 2 0.25 0 2 0.5 0 
2 0.75 0 2 1 0 2 1.25 0 
2 1.5 0 2 1.75 0 2 2 0 

CELLS 65 256
OFFSETS vtktypeint64
0 4 8 12 16 20 24 28 32 
36 40 44 48 52 56 60 64 68 
72 76 80 84 88 92 96 100 104 
108 112 116 120 124 128 132 136 140 
144 148 152 156 160 164 168 172 176 
180 184 188 192 196 200 204 208 212 
216 220 224 228 232 236 240 244 248 
252 256 
CONNECTIVITY vtktypeint64
0 9 10 1 1 10 11 2 2 
11 12 3 3 12 13 4 4 13 
14 5 5 14 15 6 6 15 16 
7 7 16 17 8 9 18 19 10 
10 19 20 11 11 20 21 12 12 
21 22 13 13 22 23 14 14 23 
24 15 15 24 25 16 16 25 26 
17 18 27 28 19 19 28 29 20 
20 29 30 21 21 30 31 22 22 
31 32 23 23 32 33 24 24 33 
34 25 25 34 35 26 27 36 37 
28 28 37 38 29 29 38 39 30 
30 39 40 31 31 40 41 32 32 
41 42 33 33 42 43 34 34 43 
44 35 36 45 46 37 37 46 47 
38 38 47 48 39 39 48 49 40 
40 49 50 41 41 50 51 42 42 
51 52 43 43 52 53 44 45 54 
55 46 46 55 56 47 47 56 57 
48 48 57 58 49 49 58 59 50 
50 59 60 51 51 60 61 52 52 
61 62 53 54 63 64 55 55 64 
65 56 56 65 66 57 57 66 67 
58 58 67 68 59 59 68 69 60 
60 69 70 61 61 70 71 62 63 
72 73 64 64 73 74 65 65 74 
75 66 66 75 76 67 67 76 77 
68 68 77 78 69 69 78 79 70 
70 79 80 71 
CELL_TYPES 64
9
9
9
9
9
9
9
9
9
9
9
9
9
9
9
9
9
9
9
9
9
9
9
9
9
9
9
9
9
9
9
9
9
9
9
9
9
9
9
9
9
9
9
9
9
9
9
9
9
9
9
9
9
9
9
9
9
9
9
9
9
9
9
9

POINT_DATA 81
FIELD FieldData 1
Mode%20Shape 3 81 double
0 0 0.020990449362 0 0 3.4871030508e-05 0 0 -0.0024045335296 
0 0 -0.00025801929746 0 0 -0.0013288477578 0 0 -0.00019987084558 
0 0 -0.00063863211061 0 0 -0.00037933638788 0 0 0 
0 0 -5.417489931e-05 0 0 0.019640951335 0 0 -0.018399701161 
0 0 0.0079558748387 0 0 9.4217707826e-05 0 0 -0.010867149832 
0 0 0.018344012815 0 0 -0.022062145821 0 0 0 
0 0 -0.0019477401512 0 0 -0.01840674701 0 0 0.013848173005 
0 0 -0.008058315098 0 0 -0.0012053266476 0 0 0.008433336665 
0 0 -0.016048177097 0 0 0.018501468953 0 0 0 
0 0 -9.0386851889e-05 0 0 0.0088430503382 0 0 -0.008158797757 
0 0 0.0036238382715 0 0 0.00013569337992 0 0 -0.0049068781693 
0 0 0.0083426939281 0 0 -0.0099609806708 0 0 0 
0 0 7.124610841e-16 0 0 2.1332280143e-16 0 0 3.7420301621e-16 
0 0 -3.2352774756e-17 0 0 1.2690440275e-16 0 0 -1.4208340433e-16 
0 0 1.1239941929e-16 0 0 -9.8272568505e-17 0 0 0 
0 0 9.0386851889e-05 0 0 -0.0088430503382 0 0 0.008158797757 
0 0 -0.0036238382715 0 0 -0.00013569337992 0 0 0.0049068781693 
0 0 -0.0083426939281 0 0 0.0099609806708 0 0 0 
0 0 0.0019477401512 0 0 0.01840674701 0 0 -0.013848173005 
0 0 0.008058315098 0 0 0.0012053266476 0 0 -0.008433336665 
0 0 0.016048177097 0 0 -0.018501468953 0 0 0 
0 0 5.417489931e-05 0 0 -0.019640951335 0 0 0.018399701161 
0 0 -0.0079558748387 0 0 -9.4217707826e-05 0 0 0.010867149832 
0 0 -0.018344012815 0 0 0.022062145821 0 0 0 
0 0 -0.020990449362 0 0 -3.4871030508e-05 0 0 0.0024045335296 
0 0 0.00025801929746 0 0 0.0013288477578 0 0 0.00019987084558 
0 0 0.00063863211061 0 0 0.00037933638788 0 0 0 

