<?xml version="1.0"?>
<VTKFile type="UnstructuredGrid" version="0.1" byte_order="LittleEndian" header_type="UInt32" compressor="vtkZLibDataCompressor">
  <UnstructuredGrid>
    <Piece NumberOfPoints="81" NumberOfCells="64">
      <PointData>
        <DataArray type="Float64" Name="Mode Shape" NumberOfComponents="3" format="ascii" RangeMin="0" RangeMax="0.019619538477">
          0 0 -0.019619538477 0 0 -0.0058788539059
          0 0 -0.00054016210068 0 0 -0.003846575527
          0 0 -0.00013353927985 0 0 -0.0026114922657
          0 0 0.00086556524046 0 0 -0.0021962294251
          0 0 0 0 0 -0.0047354629878
          0 0 -0.019510310034 0 0 0.014867925832
          0 0 -0.018359815238 0 0 0.014718851843
          0 0 -0.017198436341 0 0 0.01596533703
          0 0 -0.01603700198 0 0 0
          0 0 -0.0011725697153 0 0 0.01177325652
          0 0 -0.016144377326 0 0 0.012524327723
          0 0 -0.014582415912 0 0 0.012874046523
          0 0 -0.01443055258 0 0 0.012993132706
          0 0 0 0 0 -0.0016683831639
          0 0 -0.0083964165783 0 0 0.0068377769037
          0 0 -0.0081031590779 0 0 0.0067101730284
          0 0 -0.0076587073921 0 0 0.0072076907141
          0 0 -0.0071573693355 0 0 0
          0 0 -1.4889640968e-15 0 0 -1.5148098304e-14
          0 0 1.2756628614e-14 0 0 -6.4678287639e-15
          0 0 -5.6128662911e-16 0 0 7.423698781e-15
          0 0 -1.3535708898e-14 0 0 1.5955366251e-14
          0 0 0 0 0 0.0016683831639
          0 0 0.0083964165784 0 0 -0.0068377769038
          0 0 0.0081031590779 0 0 -0.0067101730284
          0 0 0.0076587073921 0 0 -0.0072076907141
          0 0 0.0071573693355 0 0 0
          0 0 0.0011725697153 0 0 -0.01177325652
          0 0 0.016144377326 0 0 -0.012524327723
          0 0 0.014582415912 0 0 -0.012874046523
          0 0 0.01443055258 0 0 -0.012993132706
          0 0 0 0 0 0.0047354629878
          0 0 0.019510310034 0 0 -0.014867925832
          0 0 0.018359815238 0 0 -0.014718851843
          0 0 0.017198436341 0 0 -0.01596533703
          0 0 0.01603700198 0 0 0
          0 0 0.019619538477 0 0 0.0058788539059
          0 0 0.00054016210068 0 0 0.003846575527
          0 0 0.00013353927985 0 0 0.0026114922657
          0 0 -0.00086556524046 0 0 0.0021962294251
          0 0 0
        </DataArray>
      </PointData>
      <CellData>
      </CellData>
      <Points>
        <DataArray type="Float64" Name="Points" NumberOfComponents="3" format="ascii" RangeMin="0" RangeMax="2.8284271247">
          0 0 0 0 0.25 0
          0 0.5 0 0 0.75 0
          0 1 0 0 1.25 0
          0 1.5 0 0 1.75 0
          0 2 0 0.25 0 0
          0.25 0.25 0 0.25 0.5 0
          0.25 0.75 0 0.25 1 0
          0.25 1.25 0 0.25 1.5 0
          0.25 1.75 0 0.25 2 0
          0.5 0 0 0.5 0.25 0
          0.5 0.5 0 0.5 0.75 0
          0.5 1 0 0.5 1.25 0
          0.5 1.5 0 0.5 1.75 0
          0.5 2 0 0.75 0 0
          0.75 0.25 0 0.75 0.5 0
          0.75 0.75 0 0.75 1 0
          0.75 1.25 0 0.75 1.5 0
          0.75 1.75 0 0.75 2 0
          1 0 0 1 0.25 0
          1 0.5 0 1 0.75 0
          1 1 0 1 1.25 0
          1 1.5 0 1 1.75 0
          1 2 0 1.25 0 0
          1.25 0.25 0 1.25 0.5 0
          1.25 0.75 0 1.25 1 0
          1.25 1.25 0 1.25 1.5 0
          1.25 1.75 0 1.25 2 0
          1.5 0 0 1.5 0.25 0
          1.5 0.5 0 1.5 0.75 0
          1.5 1 0 1.5 1.25 0
          1.5 1.5 0 1.5 1.75 0
          1.5 2 0 1.75 0 0
          1.75 0.25 0 1.75 0.5 0
          1.75 0.75 0 1.75 1 0
          1.75 1.25 0 1.75 1.5 0
          1.75 1.75 0 1.75 2 0
          2 0 0 2 0.25 0
          2 0.5 0 2 0.75 0
          2 1 0 2 1.25 0
          2 1.5 0 2 1.75 0
          2 2 0
        </DataArray>
      </Points>
      <Cells>
        <DataArray type="Int64" Name="connectivity" format="ascii" RangeMin="0" RangeMax="80">
          0 9 10 1 1 10
          11 2 2 11 12 3
          3 12 13 4 4 13
          14 5 5 14 15 6
          6 15 16 7 7 16
          17 8 9 18 19 10
          10 19 20 11 11 20
          21 12 12 21 22 13
          13 22 23 14 14 23
          24 15 15 24 25 16
          16 25 26 17 18 27
          28 19 19 28 29 20
          20 29 30 21 21 30
          31 22 22 31 32 23
          23 32 33 24 24 33
          34 25 25 34 35 26
          27 36 37 28 28 37
          38 29 29 38 39 30
          30 39 40 31 31 40
          41 32 32 41 42 33
          33 42 43 34 34 43
          44 35 36 45 46 37
          37 46 47 38 38 47
          48 39 39 48 49 40
          40 49 50 41 41 50
          51 42 42 51 52 43
          43 52 53 44 45 54
          55 46 46 55 56 47
          47 56 57 48 48 57
          58 49 49 58 59 50
          50 59 60 51 51 60
          61 52 52 61 62 53
          54 63 64 55 55 64
          65 56 56 65 66 57
          57 66 67 58 58 67
          68 59 59 68 69 60
          60 69 70 61 61 70
          71 62 63 72 73 64
          64 73 74 65 65 74
          75 66 66 75 76 67
          67 76 77 68 68 77
          78 69 69 78 79 70
          70 79 80 71
        </DataArray>
        <DataArray type="Int64" Name="offsets" format="ascii" RangeMin="4" RangeMax="256">
          4 8 12 16 20 24
          28 32 36 40 44 48
          52 56 60 64 68 72
          76 80 84 88 92 96
          100 104 108 112 116 120
          124 128 132 136 140 144
          148 152 156 160 164 168
          172 176 180 184 188 192
          196 200 204 208 212 216
          220 224 228 232 236 240
          244 248 252 256
        </DataArray>
        <DataArray type="UInt8" Name="types" format="ascii" RangeMin="9" RangeMax="9">
          9 9 9 9 9 9
          9 9 9 9 9 9
          9 9 9 9 9 9
          9 9 9 9 9 9
          9 9 9 9 9 9
          9 9 9 9 9 9
          9 9 9 9 9 9
          9 9 9 9 9 9
          9 9 9 9 9 9
          9 9 9 9 9 9
          9 9 9 9
        </DataArray>
      </Cells>
    </Piece>
  </UnstructuredGrid>
</VTKFile>
