# vtk DataFile Version 4.2
vtk output
ASCII
DATASET UNSTRUCTURED_GRID
POINTS 81 double
0 0 0 0 0.25 0 0 0.5 0 
0 0.75 0 0 1 0 0 1.25 0 
0 1.5 0 0 1.75 0 0 2 0 
0.25 0 0 0.25 0.25 0 0.25 0.5 0 
0.25 0.75 0 0.25 1 0 0.25 1.25 0 
0.25 1.5 0 0.25 1.75 0 0.25 2 0 
0.5 0 0 0.5 0.25 0 0.5 0.5 0 
0.5 0.75 0 0.5 1 0 0.5 1.25 0 
0.5 1.5 0 0.5 1.75 0 0.5 2 0 
0.75 0 0 0.75 0.25 0 0.75 0.5 0 
0.75 0.75 0 0.75 1 0 0.75 1.25 0 
0.75 1.5 0 0.75 1.75 0 0.75 2 0 
1 0 0 1 0.25 0 1 0.5 0 
1 0.75 0 1 1 0 1 1.25 0 
1 1.5 0 1 1.75 0 1 2 0 
1.25 0 0 1.25 0.25 0 1.25 0.5 0 
1.25 0.75 0 1.25 1 0 1.25 1.25 0 
1.25 1.5 0 1.25 1.75 0 1.25 2 0 
1.5 0 0 1.5 0.25 0 1.5 0.5 0 
1.5 0.75 0 1.5 1 0 1.5 1.25 0 
1.5 1.5 0 1.5 1.75 0 1.5 2 0 
1.75 0 0 1.75 0.25 0 1.75 0.5 0 
1.75 0.75 0 1.75 1 0 1.75 1.25 0 
1.75 1.5 0 1.75 1.75 0 1.75 2 0 
2 0 0 2 0.25 0 2 0.5 0 
2 0.75 0 2 1 0 2 1.25 0 
2 1.5 0 2 1.75 0 2 2 0 

CELLS 64 320
4 0 9 10 1 
4 1 10 11 2 
4 2 11 12 3 
4 3 12 13 4 
4 4 13 14 5 
4 5 14 15 6 
4 6 15 16 7 
4 7 16 17 8 
4 9 18 19 10 
4 10 19 20 11 
4 11 20 21 12 
4 12 21 22 13 
4 13 22 23 14 
4 14 23 24 15 
4 15 24 25 16 
4 16 25 26 17 
4 18 27 28 19 
4 19 28 29 20 
4 20 29 30 21 
4 21 30 31 22 
4 22 31 32 23 
4 23 32 33 24 
4 24 33 34 25 
4 25 34 35 26 
4 27 36 37 28 
4 28 37 38 29 
4 29 38 39 30 
4 30 39 40 31 
4 31 40 41 32 
4 32 41 42 33 
4 33 42 43 34 
4 34 43 44 35 
4 36 45 46 37 
4 37 46 47 38 
4 38 47 48 39 
4 39 48 49 40 
4 40 49 50 41 
4 41 50 51 42 
4 42 51 52 43 
4 43 52 53 44 
4 45 54 55 46 
4 46 55 56 47 
4 47 56 57 48 
4 48 57 58 49 
4 49 58 59 50 
4 50 59 60 51 
4 51 60 61 52 
4 52 61 62 53 
4 54 63 64 55 
4 55 64 65 56 
4 56 65 66 57 
4 57 66 67 58 
4 58 67 68 59 
4 59 68 69 60 
4 60 69 70 61 
4 61 70 71 62 
4 63 72 73 64 
4 64 73 74 65 
4 65 74 75 66 
4 66 75 76 67 
4 67 76 77 68 
4 68 77 78 69 
4 69 78 79 70 
4 70 79 80 71 

CELL_TYPES 64
9
9
9
9
9
9
9
9
9
9
9
9
9
9
9
9
9
9
9
9
9
9
9
9
9
9
9
9
9
9
9
9
9
9
9
9
9
9
9
9
9
9
9
9
9
9
9
9
9
9
9
9
9
9
9
9
9
9
9
9
9
9
9
9

POINT_DATA 81
FIELD FieldData 1
Mode%20Shape 3 81 double
0 0 1.7477758011e-05 0 0 -0.0021768784531 0 0 0.0042331717341 
0 0 -0.0053917587427 0 0 0.0059440376325 0 0 -0.0056038664247 
0 0 0.0036163539653 0 0 -0.0030308450554 0 0 0 
0 0 0.0025362697649 0 0 4.7981024221e-05 0 0 -0.0093535112993 
0 0 0.020485563527 0 0 -0.025054480997 0 0 0.020184811045 
0 0 -0.009595953615 0 0 -0.0006658562582 0 0 0 
0 0 -0.0039424963806 0 0 0.0095798169676 0 0 9.5190887936e-05 
0 0 -0.012159168089 0 0 0.016988422855 0 0 -0.012202885222 
0 0 -0.00024585012342 0 0 0.0097061033401 0 0 0 
0 0 0.0053550254035 0 0 -0.020351877345 0 0 0.011800351974 
0 0 0.00021036530955 0 0 -0.0052801661379 0 0 5.3915267532e-05 
0 0 0.01174241431 0 0 -0.020870791324 0 0 0 
0 0 -0.006000551109 0 0 0.024789396904 0 0 -0.016739273166 
0 0 0.0045560825784 0 0 0.00021727825613 0 0 0.0045516073443 
0 0 -0.016885653179 0 0 0.025196938925 0 0 0 
0 0 0.0053550254035 0 0 -0.020351877345 0 0 0.011800351974 
0 0 0.00021036530955 0 0 -0.0052801661379 0 0 5.3915267532e-05 
0 0 0.01174241431 0 0 -0.020870791324 0 0 0 
0 0 -0.0039424963806 0 0 0.0095798169676 0 0 9.5190887935e-05 
0 0 -0.012159168089 0 0 0.016988422855 0 0 -0.012202885222 
0 0 -0.00024585012341 0 0 0.0097061033401 0 0 0 
0 0 0.0025362697649 0 0 4.7981024219e-05 0 0 -0.0093535112993 
0 0 0.020485563527 0 0 -0.025054480997 0 0 0.020184811045 
0 0 -0.009595953615 0 0 -0.0006658562582 0 0 0 
0 0 1.747775801e-05 0 0 -0.0021768784531 0 0 0.0042331717341 
0 0 -0.0053917587427 0 0 0.0059440376325 0 0 -0.0056038664247 
0 0 0.0036163539653 0 0 -0.0030308450554 0 0 0 

