# vtk DataFile Version 5.1
vtk output
ASCII
DATASET UNSTRUCTURED_GRID
POINTS 81 double
0 0 0 0 0.25 0 0 0.5 0 
0 0.75 0 0 1 0 0 1.25 0 
0 1.5 0 0 1.75 0 0 2 0 
0.25 0 0 0.25 0.25 0 0.25 0.5 0 
0.25 0.75 0 0.25 1 0 0.25 1.25 0 
0.25 1.5 0 0.25 1.75 0 0.25 2 0 
0.5 0 0 0.5 0.25 0 0.5 0.5 0 
0.5 0.75 0 0.5 1 0 0.5 1.25 0 
0.5 1.5 0 0.5 1.75 0 0.5 2 0 
0.75 0 0 0.75 0.25 0 0.75 0.5 0 
0.75 0.75 0 0.75 1 0 0.75 1.25 0 
0.75 1.5 0 0.75 1.75 0 0.75 2 0 
1 0 0 1 0.25 0 1 0.5 0 
1 0.75 0 1 1 0 1 1.25 0 
1 1.5 0 1 1.75 0 1 2 0 
1.25 0 0 1.25 0.25 0 1.25 0.5 0 
1.25 0.75 0 1.25 1 0 1.25 1.25 0 
1.25 1.5 0 1.25 1.75 0 1.25 2 0 
1.5 0 0 1.5 0.25 0 1.5 0.5 0 
1.5 0.75 0 1.5 1 0 1.5 1.25 0 
1.5 1.5 0 1.5 1.75 0 1.5 2 0 
1.75 0 0 1.75 0.25 0 1.75 0.5 0 
1.75 0.75 0 1.75 1 0 1.75 1.25 0 
1.75 1.5 0 1.75 1.75 0 1.75 2 0 
2 0 0 2 0.25 0 2 0.5 0 
2 0.75 0 2 1 0 2 1.25 0 
2 1.5 0 2 1.75 0 2 2 0 

CELLS 65 256
OFFSETS vtktypeint64
0 4 8 12 16 20 24 28 32 
36 40 44 48 52 56 60 64 68 
72 76 80 84 88 92 96 100 104 
108 112 116 120 124 128 132 136 140 
144 148 152 156 160 164 168 172 176 
180 184 188 192 196 200 204 208 212 
216 220 224 228 232 236 240 244 248 
252 256 
CONNECTIVITY vtktypeint64
0 9 10 1 1 10 11 2 2 
11 12 3 3 12 13 4 4 13 
14 5 5 14 15 6 6 15 16 
7 7 16 17 8 9 18 19 10 
10 19 20 11 11 20 21 12 12 
21 22 13 13 22 23 14 14 23 
24 15 15 24 25 16 16 25 26 
17 18 27 28 19 19 28 29 20 
20 29 30 21 21 30 31 22 22 
31 32 23 23 32 33 24 24 33 
34 25 25 34 35 26 27 36 37 
28 28 37 38 29 29 38 39 30 
30 39 40 31 31 40 41 32 32 
41 42 33 33 42 43 34 34 43 
44 35 36 45 46 37 37 46 47 
38 38 47 48 39 39 48 49 40 
40 49 50 41 41 50 51 42 42 
51 52 43 43 52 53 44 45 54 
55 46 46 55 56 47 47 56 57 
48 48 57 58 49 49 58 59 50 
50 59 60 51 51 60 61 52 52 
61 62 53 54 63 64 55 55 64 
65 56 56 65 66 57 57 66 67 
58 58 67 68 59 59 68 69 60 
60 69 70 61 61 70 71 62 63 
72 73 64 64 73 74 65 65 74 
75 66 66 75 76 67 67 76 77 
68 68 77 78 69 69 78 79 70 
70 79 80 71 
CELL_TYPES 64
9
9
9
9
9
9
9
9
9
9
9
9
9
9
9
9
9
9
9
9
9
9
9
9
9
9
9
9
9
9
9
9
9
9
9
9
9
9
9
9
9
9
9
9
9
9
9
9
9
9
9
9
9
9
9
9
9
9
9
9
9
9
9
9

POINT_DATA 81
FIELD FieldData 1
Mode%20Shape 3 81 double
0 0 -71.262647022 0 0 -67.75070604 0 0 -32.459489984 
0 0 31.797459099 0 0 2.0478764261 0 0 7.7090392145 
0 0 58.162930157 0 0 72.368640233 0 0 0 
0 0 -112.98084688 0 0 -95.978077692 0 0 -24.499196702 
0 0 -22.386792304 0 0 -14.352382928 0 0 34.295072707 
0 0 -10.901277244 0 0 58.544580091 0 0 0 
0 0 -92.160494593 0 0 -32.823924659 0 0 -39.215086635 
0 0 5.5003721248 0 0 -8.4194220581 0 0 -10.269513295 
0 0 39.937171686 0 0 -4.5841885012 0 0 0 
0 0 -12.50567523 0 0 -29.461034108 0 0 -21.018989504 
0 0 -24.058763549 0 0 -2.7375327484 0 0 17.812416154 
0 0 -18.527103671 0 0 21.56961232 0 0 0 
0 0 -45.440317391 0 0 -23.935007906 0 0 19.175075944 
0 0 -9.2645522229 0 0 -26.436056846 0 0 -9.1287550809 
0 0 5.573476377 0 0 16.48741691 0 0 0 
0 0 60.894931372 0 0 2.5493340486 0 0 5.2543896701 
0 0 18.961261084 0 0 -16.284467439 0 0 -14.727201621 
0 0 19.00756069 0 0 13.501356791 0 0 0 
0 0 19.955999901 0 0 76.9907242 0 0 35.193165088 
0 0 40.082853339 0 0 7.3824998898 0 0 2.5542350561 
0 0 40.257530043 0 0 -5.3318489696 0 0 0 
0 0 89.694679425 0 0 26.549251312 0 0 95.121681629 
0 0 39.968864533 0 0 18.593008549 0 0 32.373165014 
0 0 30.902395073 0 0 53.898584363 0 0 0 
0 0 77.983232505 0 0 18.393567429 0 0 111.65698356 
0 0 77.490962473 0 0 12.598846971 0 0 -3.0228769666 
0 0 15.808047454 0 0 51.965770935 0 0 0 

