# vtk DataFile Version 5.1
vtk output
ASCII
DATASET UNSTRUCTURED_GRID
POINTS 81 double
0 0 0 0 0.125 0 0 0.25 0 
0 0.375 0 0 0.5 0 0 0.625 0 
0 0.75 0 0 0.875 0 0 1 0 
0.125 0 0 0.125 0.125 0 0.125 0.25 0 
0.125 0.375 0 0.125 0.5 0 0.125 0.625 0 
0.125 0.75 0 0.125 0.875 0 0.125 1 0 
0.25 0 0 0.25 0.125 0 0.25 0.25 0 
0.25 0.375 0 0.25 0.5 0 0.25 0.625 0 
0.25 0.75 0 0.25 0.875 0 0.25 1 0 
0.375 0 0 0.375 0.125 0 0.375 0.25 0 
0.375 0.375 0 0.375 0.5 0 0.375 0.625 0 
0.375 0.75 0 0.375 0.875 0 0.375 1 0 
0.5 0 0 0.5 0.125 0 0.5 0.25 0 
0.5 0.375 0 0.5 0.5 0 0.5 0.625 0 
0.5 0.75 0 0.5 0.875 0 0.5 1 0 
0.625 0 0 0.625 0.125 0 0.625 0.25 0 
0.625 0.375 0 0.625 0.5 0 0.625 0.625 0 
0.625 0.75 0 0.625 0.875 0 0.625 1 0 
0.75 0 0 0.75 0.125 0 0.75 0.25 0 
0.75 0.375 0 0.75 0.5 0 0.75 0.625 0 
0.75 0.75 0 0.75 0.875 0 0.75 1 0 
0.875 0 0 0.875 0.125 0 0.875 0.25 0 
0.875 0.375 0 0.875 0.5 0 0.875 0.625 0 
0.875 0.75 0 0.875 0.875 0 0.875 1 0 
1 0 0 1 0.125 0 1 0.25 0 
1 0.375 0 1 0.5 0 1 0.625 0 
1 0.75 0 1 0.875 0 1 1 0 

CELLS 65 256
OFFSETS vtktypeint64
0 4 8 12 16 20 24 28 32 
36 40 44 48 52 56 60 64 68 
72 76 80 84 88 92 96 100 104 
108 112 116 120 124 128 132 136 140 
144 148 152 156 160 164 168 172 176 
180 184 188 192 196 200 204 208 212 
216 220 224 228 232 236 240 244 248 
252 256 
CONNECTIVITY vtktypeint64
0 9 10 1 1 10 11 2 2 
11 12 3 3 12 13 4 4 13 
14 5 5 14 15 6 6 15 16 
7 7 16 17 8 9 18 19 10 
10 19 20 11 11 20 21 12 12 
21 22 13 13 22 23 14 14 23 
24 15 15 24 25 16 16 25 26 
17 18 27 28 19 19 28 29 20 
20 29 30 21 21 30 31 22 22 
31 32 23 23 32 33 24 24 33 
34 25 25 34 35 26 27 36 37 
28 28 37 38 29 29 38 39 30 
30 39 40 31 31 40 41 32 32 
41 42 33 33 42 43 34 34 43 
44 35 36 45 46 37 37 46 47 
38 38 47 48 39 39 48 49 40 
40 49 50 41 41 50 51 42 42 
51 52 43 43 52 53 44 45 54 
55 46 46 55 56 47 47 56 57 
48 48 57 58 49 49 58 59 50 
50 59 60 51 51 60 61 52 52 
61 62 53 54 63 64 55 55 64 
65 56 56 65 66 57 57 66 67 
58 58 67 68 59 59 68 69 60 
60 69 70 61 61 70 71 62 63 
72 73 64 64 73 74 65 65 74 
75 66 66 75 76 67 67 76 77 
68 68 77 78 69 69 78 79 70 
70 79 80 71 
CELL_TYPES 64
9
9
9
9
9
9
9
9
9
9
9
9
9
9
9
9
9
9
9
9
9
9
9
9
9
9
9
9
9
9
9
9
9
9
9
9
9
9
9
9
9
9
9
9
9
9
9
9
9
9
9
9
9
9
9
9
9
9
9
9
9
9
9
9

POINT_DATA 81
FIELD FieldData 3
theta 1 81 double
0 0 0 0 0 0 0 0 0 
0 3.693178954e-06 1.531974859e-05 3.4900684945e-05 6.2472139385e-05 9.8083594002e-05 0.00014178679597 0.00019361267397 0.00025352756661 
0 3.1148973784e-05 0.00012569142672 0.00028366433547 0.00050514095921 0.00079022968932 0.0011390561551 0.0015517225784 0.0020282205329 
0 0.00010614343492 0.00042619473637 0.00096019654684 0.001708258707 0.0026705621556 0.0038473457683 0.0052388591155 0.0068452442984 
0 0.00025247800714 0.0010119633013 0.0022784889204 0.004052194149 0.0063333400666 0.0091223177161 0.012419631998 0.016225764263 
0 0.00049398761829 0.0019782057416 0.0044526609055 0.0079175036515 0.012373055945 0.017819871007 0.024258795313 0.031690945826 
0 0.00085453848123 0.0034202116786 0.0076969917826 0.013685008107 0.021384582267 0.030796333782 0.041921452258 0.054761954387 
0 0.0013580091214 0.0054333302678 0.012225921256 0.021735859099 0.033963345032 0.048908848342 0.066573351175 0.086959955346 
0 0.0020282205329 0.0081128821314 0.018253984796 0.032451528526 0.050705513321 0.073015939183 0.09938280611 0.1298061141 

theta_x 1 81 double
0 -1.7972955382e-05 -6.7531891192e-05 -0.00014849925202 -0.00026058930207 -0.00040342666449 -0.00057664549645 -0.00078007668625 -0.0010141102664 
0 0.00010490441073 0.00042401022929 0.00095746971248 0.0017055761787 0.0026687576136 0.0038474999947 0.0052421811359 0.0068527139147 
0 0.00038531365206 0.0015455961705 0.0034809397123 0.0061916429248 0.0096782310411 0.013941442491 0.018982112378 0.024800883829 
0 0.00086162186794 0.0034504123565 0.0077663595947 0.013809736438 0.021581170111 0.031081732171 0.042313030722 0.055276918526 
0 0.0015274842077 0.0061126296761 0.013755289436 0.02445564052 0.038214280367 0.055032534435 0.074912804706 0.097859004375 
0 0.0023844867536 0.0095381617548 0.021460763267 0.038152258664 0.059612948944 0.085843868861 0.11684809936 0.1526315041 
0 0.0034315304418 0.013722347869 0.030872222554 0.054880854158 0.085747776378 0.12347276649 0.16805684746 0.21951005498 
0 0.0046750186939 0.01869173587 0.042050232624 0.074749990726 0.11678964357 0.16816680687 0.22887660349 0.29891647065 
0 0.0060761830468 0.024292691403 0.054650158124 0.097147854882 0.15178415597 0.21855376511 0.29744685487 0.38840423204 

theta_y 1 81 double
0 0 0 0 0 0 0 0 0 
-2.1604960043e-06 6.1265156626e-05 0.00012480151113 0.00018856596831 0.00025267918448 0.00031721201463 0.00038211773832 0.00044701211436 0.00051151423604 
-4.3422977852e-06 0.00050274349314 0.001010006994 0.0015177061169 0.0020261413443 0.0025355371405 0.0030459220812 0.0035567028214 0.0040671210788 
-6.461439535e-06 0.0017047590939 0.0034161384401 0.0051281098471 0.0068412495391 0.0085560923988 0.010272982027 0.011991518153 0.013710662017 
-8.2393045173e-06 0.0040478504205 0.0081039624224 0.012160724268 0.016219079096 0.020280037839 0.02434464802 0.028413415831 0.032485146489 
-9.1458979551e-06 0.0079128512193 0.015834622314 0.023756960091 0.031681150254 0.039608779646 0.047541927248 0.055483316641 0.063432567108 
-8.4486523677e-06 0.013680908441 0.027369771723 0.041058966864 0.054749912807 0.068444451793 0.082145798016 0.095860599817 0.10959046246 
-5.3887852056e-06 0.021733386942 0.043471635704 0.065209987139 0.086949364079 0.10869138922 0.13043795637 0.15220106917 0.17399105274 
0 0.032451528526 0.064903057051 0.097354585577 0.1298061141 0.16225764263 0.19470917115 0.22716069968 0.25961222821 

