# vtk DataFile Version 4.2
vtk output
ASCII
DATASET UNSTRUCTURED_GRID
POINTS 81 double
0 0 0 0 0.25 0 0 0.5 0 
0 0.75 0 0 1 0 0 1.25 0 
0 1.5 0 0 1.75 0 0 2 0 
0.25 0 0 0.25 0.25 0 0.25 0.5 0 
0.25 0.75 0 0.25 1 0 0.25 1.25 0 
0.25 1.5 0 0.25 1.75 0 0.25 2 0 
0.5 0 0 0.5 0.25 0 0.5 0.5 0 
0.5 0.75 0 0.5 1 0 0.5 1.25 0 
0.5 1.5 0 0.5 1.75 0 0.5 2 0 
0.75 0 0 0.75 0.25 0 0.75 0.5 0 
0.75 0.75 0 0.75 1 0 0.75 1.25 0 
0.75 1.5 0 0.75 1.75 0 0.75 2 0 
1 0 0 1 0.25 0 1 0.5 0 
1 0.75 0 1 1 0 1 1.25 0 
1 1.5 0 1 1.75 0 1 2 0 
1.25 0 0 1.25 0.25 0 1.25 0.5 0 
1.25 0.75 0 1.25 1 0 1.25 1.25 0 
1.25 1.5 0 1.25 1.75 0 1.25 2 0 
1.5 0 0 1.5 0.25 0 1.5 0.5 0 
1.5 0.75 0 1.5 1 0 1.5 1.25 0 
1.5 1.5 0 1.5 1.75 0 1.5 2 0 
1.75 0 0 1.75 0.25 0 1.75 0.5 0 
1.75 0.75 0 1.75 1 0 1.75 1.25 0 
1.75 1.5 0 1.75 1.75 0 1.75 2 0 
2 0 0 2 0.25 0 2 0.5 0 
2 0.75 0 2 1 0 2 1.25 0 
2 1.5 0 2 1.75 0 2 2 0 

CELLS 64 320
4 0 9 10 1 
4 1 10 11 2 
4 2 11 12 3 
4 3 12 13 4 
4 4 13 14 5 
4 5 14 15 6 
4 6 15 16 7 
4 7 16 17 8 
4 9 18 19 10 
4 10 19 20 11 
4 11 20 21 12 
4 12 21 22 13 
4 13 22 23 14 
4 14 23 24 15 
4 15 24 25 16 
4 16 25 26 17 
4 18 27 28 19 
4 19 28 29 20 
4 20 29 30 21 
4 21 30 31 22 
4 22 31 32 23 
4 23 32 33 24 
4 24 33 34 25 
4 25 34 35 26 
4 27 36 37 28 
4 28 37 38 29 
4 29 38 39 30 
4 30 39 40 31 
4 31 40 41 32 
4 32 41 42 33 
4 33 42 43 34 
4 34 43 44 35 
4 36 45 46 37 
4 37 46 47 38 
4 38 47 48 39 
4 39 48 49 40 
4 40 49 50 41 
4 41 50 51 42 
4 42 51 52 43 
4 43 52 53 44 
4 45 54 55 46 
4 46 55 56 47 
4 47 56 57 48 
4 48 57 58 49 
4 49 58 59 50 
4 50 59 60 51 
4 51 60 61 52 
4 52 61 62 53 
4 54 63 64 55 
4 55 64 65 56 
4 56 65 66 57 
4 57 66 67 58 
4 58 67 68 59 
4 59 68 69 60 
4 60 69 70 61 
4 61 70 71 62 
4 63 72 73 64 
4 64 73 74 65 
4 65 74 75 66 
4 66 75 76 67 
4 67 76 77 68 
4 68 77 78 69 
4 69 78 79 70 
4 70 79 80 71 

CELL_TYPES 64
9
9
9
9
9
9
9
9
9
9
9
9
9
9
9
9
9
9
9
9
9
9
9
9
9
9
9
9
9
9
9
9
9
9
9
9
9
9
9
9
9
9
9
9
9
9
9
9
9
9
9
9
9
9
9
9
9
9
9
9
9
9
9
9

POINT_DATA 81
FIELD FieldData 1
Mode%20Shape 3 81 double
0 0 -71.27728408 0 0 -67.764634114 0 0 -32.465713824 
0 0 31.805307725 0 0 2.0490354054 0 0 7.7113030458 
0 0 58.176250374 0 0 72.384947227 0 0 0 
0 0 -113.00466721 0 0 -95.998229334 0 0 -24.503666801 
0 0 -22.390904603 0 0 -14.354850105 0 0 34.303197196 
0 0 -10.903252048 0 0 58.557737959 0 0 0 
0 0 -92.179809685 0 0 -32.830109463 0 0 -39.222782222 
0 0 5.5024178556 0 0 -8.4205875339 0 0 -10.271226633 
0 0 39.946365993 0 0 -4.5849815426 0 0 0 
0 0 -12.506953958 0 0 -29.466402095 0 0 -21.02265097 
0 0 -24.063232613 0 0 -2.7374379777 0 0 17.816886783 
0 0 -18.53081272 0 0 21.574557904 0 0 0 
0 0 -45.4492108 0 0 -23.939176735 0 0 19.180297119 
0 0 -9.2657439588 0 0 -26.441188893 0 0 -9.1302221768 
0 0 5.575074746 0 0 16.491252864 0 0 0 
0 0 60.909561656 0 0 2.5509965868 0 0 5.2565528493 
0 0 18.966316299 0 0 -16.287339715 0 0 -14.729897811 
0 0 19.012140875 0 0 13.504524569 0 0 0 
0 0 19.961522355 0 0 77.00885656 0 0 35.201948508 
0 0 40.092603126 0 0 7.3848817411 0 0 2.555381591 
0 0 40.266806701 0 0 -5.3328230524 0 0 0 
0 0 89.715603742 0 0 26.556193092 0 0 95.143752718 
0 0 39.978641522 0 0 18.597913899 0 0 32.380926873 
0 0 30.909630485 0 0 53.910683091 0 0 0 
0 0 78.001574084 0 0 18.398723422 0 0 111.68268446 
0 0 77.509036279 0 0 12.602513759 0 0 -3.0228791187 
0 0 15.811950826 0 0 51.977452646 0 0 0 

