<?xml version="1.0"?>
<VTKFile type="UnstructuredGrid" version="0.1" byte_order="LittleEndian" header_type="UInt32" compressor="vtkZLibDataCompressor">
  <UnstructuredGrid>
    <Piece NumberOfPoints="81" NumberOfCells="64">
      <PointData>
        <DataArray type="Float64" Name="Mode Shape" NumberOfComponents="3" format="ascii" RangeMin="0" RangeMax="0.025196938925">
          0 0 1.7477758011e-05 0 0 -0.0021768784531
          0 0 0.0042331717341 0 0 -0.0053917587427
          0 0 0.0059440376325 0 0 -0.0056038664247
          0 0 0.0036163539653 0 0 -0.0030308450554
          0 0 0 0 0 0.0025362697649
          0 0 4.7981024221e-05 0 0 -0.0093535112993
          0 0 0.020485563527 0 0 -0.025054480997
          0 0 0.020184811045 0 0 -0.009595953615
          0 0 -0.0006658562582 0 0 0
          0 0 -0.0039424963806 0 0 0.0095798169676
          0 0 9.5190887936e-05 0 0 -0.012159168089
          0 0 0.016988422855 0 0 -0.012202885222
          0 0 -0.00024585012342 0 0 0.0097061033401
          0 0 0 0 0 0.0053550254035
          0 0 -0.020351877345 0 0 0.011800351974
          0 0 0.00021036530955 0 0 -0.0052801661379
          0 0 5.3915267532e-05 0 0 0.01174241431
          0 0 -0.020870791324 0 0 0
          0 0 -0.006000551109 0 0 0.024789396904
          0 0 -0.016739273166 0 0 0.0045560825784
          0 0 0.00021727825613 0 0 0.0045516073443
          0 0 -0.016885653179 0 0 0.025196938925
          0 0 0 0 0 0.0053550254035
          0 0 -0.020351877345 0 0 0.011800351974
          0 0 0.00021036530955 0 0 -0.0052801661379
          0 0 5.3915267532e-05 0 0 0.01174241431
          0 0 -0.020870791324 0 0 0
          0 0 -0.0039424963806 0 0 0.0095798169676
          0 0 9.5190887935e-05 0 0 -0.012159168089
          0 0 0.016988422855 0 0 -0.012202885222
          0 0 -0.00024585012341 0 0 0.0097061033401
          0 0 0 0 0 0.0025362697649
          0 0 4.7981024219e-05 0 0 -0.0093535112993
          0 0 0.020485563527 0 0 -0.025054480997
          0 0 0.020184811045 0 0 -0.009595953615
          0 0 -0.0006658562582 0 0 0
          0 0 1.747775801e-05 0 0 -0.0021768784531
          0 0 0.0042331717341 0 0 -0.0053917587427
          0 0 0.0059440376325 0 0 -0.0056038664247
          0 0 0.0036163539653 0 0 -0.0030308450554
          0 0 0
        </DataArray>
      </PointData>
      <CellData>
      </CellData>
      <Points>
        <DataArray type="Float64" Name="Points" NumberOfComponents="3" format="ascii" RangeMin="0" RangeMax="2.8284271247">
          0 0 0 0 0.25 0
          0 0.5 0 0 0.75 0
          0 1 0 0 1.25 0
          0 1.5 0 0 1.75 0
          0 2 0 0.25 0 0
          0.25 0.25 0 0.25 0.5 0
          0.25 0.75 0 0.25 1 0
          0.25 1.25 0 0.25 1.5 0
          0.25 1.75 0 0.25 2 0
          0.5 0 0 0.5 0.25 0
          0.5 0.5 0 0.5 0.75 0
          0.5 1 0 0.5 1.25 0
          0.5 1.5 0 0.5 1.75 0
          0.5 2 0 0.75 0 0
          0.75 0.25 0 0.75 0.5 0
          0.75 0.75 0 0.75 1 0
          0.75 1.25 0 0.75 1.5 0
          0.75 1.75 0 0.75 2 0
          1 0 0 1 0.25 0
          1 0.5 0 1 0.75 0
          1 1 0 1 1.25 0
          1 1.5 0 1 1.75 0
          1 2 0 1.25 0 0
          1.25 0.25 0 1.25 0.5 0
          1.25 0.75 0 1.25 1 0
          1.25 1.25 0 1.25 1.5 0
          1.25 1.75 0 1.25 2 0
          1.5 0 0 1.5 0.25 0
          1.5 0.5 0 1.5 0.75 0
          1.5 1 0 1.5 1.25 0
          1.5 1.5 0 1.5 1.75 0
          1.5 2 0 1.75 0 0
          1.75 0.25 0 1.75 0.5 0
          1.75 0.75 0 1.75 1 0
          1.75 1.25 0 1.75 1.5 0
          1.75 1.75 0 1.75 2 0
          2 0 0 2 0.25 0
          2 0.5 0 2 0.75 0
          2 1 0 2 1.25 0
          2 1.5 0 2 1.75 0
          2 2 0
        </DataArray>
      </Points>
      <Cells>
        <DataArray type="Int64" Name="connectivity" format="ascii" RangeMin="0" RangeMax="80">
          0 9 10 1 1 10
          11 2 2 11 12 3
          3 12 13 4 4 13
          14 5 5 14 15 6
          6 15 16 7 7 16
          17 8 9 18 19 10
          10 19 20 11 11 20
          21 12 12 21 22 13
          13 22 23 14 14 23
          24 15 15 24 25 16
          16 25 26 17 18 27
          28 19 19 28 29 20
          20 29 30 21 21 30
          31 22 22 31 32 23
          23 32 33 24 24 33
          34 25 25 34 35 26
          27 36 37 28 28 37
          38 29 29 38 39 30
          30 39 40 31 31 40
          41 32 32 41 42 33
          33 42 43 34 34 43
          44 35 36 45 46 37
          37 46 47 38 38 47
          48 39 39 48 49 40
          40 49 50 41 41 50
          51 42 42 51 52 43
          43 52 53 44 45 54
          55 46 46 55 56 47
          47 56 57 48 48 57
          58 49 49 58 59 50
          50 59 60 51 51 60
          61 52 52 61 62 53
          54 63 64 55 55 64
          65 56 56 65 66 57
          57 66 67 58 58 67
          68 59 59 68 69 60
          60 69 70 61 61 70
          71 62 63 72 73 64
          64 73 74 65 65 74
          75 66 66 75 76 67
          67 76 77 68 68 77
          78 69 69 78 79 70
          70 79 80 71
        </DataArray>
        <DataArray type="Int64" Name="offsets" format="ascii" RangeMin="4" RangeMax="256">
          4 8 12 16 20 24
          28 32 36 40 44 48
          52 56 60 64 68 72
          76 80 84 88 92 96
          100 104 108 112 116 120
          124 128 132 136 140 144
          148 152 156 160 164 168
          172 176 180 184 188 192
          196 200 204 208 212 216
          220 224 228 232 236 240
          244 248 252 256
        </DataArray>
        <DataArray type="UInt8" Name="types" format="ascii" RangeMin="9" RangeMax="9">
          9 9 9 9 9 9
          9 9 9 9 9 9
          9 9 9 9 9 9
          9 9 9 9 9 9
          9 9 9 9 9 9
          9 9 9 9 9 9
          9 9 9 9 9 9
          9 9 9 9 9 9
          9 9 9 9 9 9
          9 9 9 9 9 9
          9 9 9 9
        </DataArray>
      </Cells>
    </Piece>
  </UnstructuredGrid>
</VTKFile>
