# vtk DataFile Version 5.1
vtk output
ASCII
DATASET UNSTRUCTURED_GRID
POINTS 81 double
0 0 0 0 0.25 0 0 0.5 0 
0 0.75 0 0 1 0 0 1.25 0 
0 1.5 0 0 1.75 0 0 2 0 
0.25 0 0 0.25 0.25 0 0.25 0.5 0 
0.25 0.75 0 0.25 1 0 0.25 1.25 0 
0.25 1.5 0 0.25 1.75 0 0.25 2 0 
0.5 0 0 0.5 0.25 0 0.5 0.5 0 
0.5 0.75 0 0.5 1 0 0.5 1.25 0 
0.5 1.5 0 0.5 1.75 0 0.5 2 0 
0.75 0 0 0.75 0.25 0 0.75 0.5 0 
0.75 0.75 0 0.75 1 0 0.75 1.25 0 
0.75 1.5 0 0.75 1.75 0 0.75 2 0 
1 0 0 1 0.25 0 1 0.5 0 
1 0.75 0 1 1 0 1 1.25 0 
1 1.5 0 1 1.75 0 1 2 0 
1.25 0 0 1.25 0.25 0 1.25 0.5 0 
1.25 0.75 0 1.25 1 0 1.25 1.25 0 
1.25 1.5 0 1.25 1.75 0 1.25 2 0 
1.5 0 0 1.5 0.25 0 1.5 0.5 0 
1.5 0.75 0 1.5 1 0 1.5 1.25 0 
1.5 1.5 0 1.5 1.75 0 1.5 2 0 
1.75 0 0 1.75 0.25 0 1.75 0.5 0 
1.75 0.75 0 1.75 1 0 1.75 1.25 0 
1.75 1.5 0 1.75 1.75 0 1.75 2 0 
2 0 0 2 0.25 0 2 0.5 0 
2 0.75 0 2 1 0 2 1.25 0 
2 1.5 0 2 1.75 0 2 2 0 

CELLS 65 256
OFFSETS vtktypeint64
0 4 8 12 16 20 24 28 32 
36 40 44 48 52 56 60 64 68 
72 76 80 84 88 92 96 100 104 
108 112 116 120 124 128 132 136 140 
144 148 152 156 160 164 168 172 176 
180 184 188 192 196 200 204 208 212 
216 220 224 228 232 236 240 244 248 
252 256 
CONNECTIVITY vtktypeint64
0 9 10 1 1 10 11 2 2 
11 12 3 3 12 13 4 4 13 
14 5 5 14 15 6 6 15 16 
7 7 16 17 8 9 18 19 10 
10 19 20 11 11 20 21 12 12 
21 22 13 13 22 23 14 14 23 
24 15 15 24 25 16 16 25 26 
17 18 27 28 19 19 28 29 20 
20 29 30 21 21 30 31 22 22 
31 32 23 23 32 33 24 24 33 
34 25 25 34 35 26 27 36 37 
28 28 37 38 29 29 38 39 30 
30 39 40 31 31 40 41 32 32 
41 42 33 33 42 43 34 34 43 
44 35 36 45 46 37 37 46 47 
38 38 47 48 39 39 48 49 40 
40 49 50 41 41 50 51 42 42 
51 52 43 43 52 53 44 45 54 
55 46 46 55 56 47 47 56 57 
48 48 57 58 49 49 58 59 50 
50 59 60 51 51 60 61 52 52 
61 62 53 54 63 64 55 55 64 
65 56 56 65 66 57 57 66 67 
58 58 67 68 59 59 68 69 60 
60 69 70 61 61 70 71 62 63 
72 73 64 64 73 74 65 65 74 
75 66 66 75 76 67 67 76 77 
68 68 77 78 69 69 78 79 70 
70 79 80 71 
CELL_TYPES 64
9
9
9
9
9
9
9
9
9
9
9
9
9
9
9
9
9
9
9
9
9
9
9
9
9
9
9
9
9
9
9
9
9
9
9
9
9
9
9
9
9
9
9
9
9
9
9
9
9
9
9
9
9
9
9
9
9
9
9
9
9
9
9
9

POINT_DATA 81
FIELD FieldData 1
Mode%20Shape 3 81 double
0 0 0.045384667927 0 0 0.025323439997 0 0 -0.031568281395 
0 0 0.02884209099 0 0 -0.031650347743 0 0 0.026102083784 
0 0 -0.023919208277 0 0 0.019606273755 0 0 0 
0 0 0.0021850236635 0 0 0.011710535494 0 0 0.0014426351774 
0 0 -0.022458026521 0 0 0.026278000496 0 0 -0.020174255875 
0 0 -0.00034285775977 0 0 0.015218015046 0 0 0 
0 0 -0.0032406324045 0 0 -0.0088446624003 0 0 -0.0061645058327 
0 0 0.019637472275 0 0 -0.027082090932 0 0 0.018053443753 
0 0 -0.0026302260199 0 0 -0.011254401854 0 0 0 
0 0 0.00067697787968 0 0 0.0029902858794 0 0 0.0031648484088 
0 0 -0.012281591337 0 0 0.01423593454 0 0 -0.011006720469 
0 0 0.0016047017876 0 0 0.0052553750037 0 0 0 
0 0 -3.3698034373e-15 0 0 2.9302350788e-17 0 0 -1.4321556333e-15 
0 0 -8.91946322e-16 0 0 -1.1549592445e-15 0 0 -1.9515446859e-15 
0 0 -4.0621594189e-16 0 0 -1.4710410728e-15 0 0 0 
0 0 -0.00067697787968 0 0 -0.0029902858794 0 0 -0.0031648484088 
0 0 0.012281591337 0 0 -0.01423593454 0 0 0.011006720469 
0 0 -0.0016047017876 0 0 -0.0052553750037 0 0 0 
0 0 0.0032406324045 0 0 0.0088446624003 0 0 0.0061645058327 
0 0 -0.019637472275 0 0 0.027082090932 0 0 -0.018053443753 
0 0 0.0026302260199 0 0 0.011254401854 0 0 0 
0 0 -0.0021850236635 0 0 -0.011710535494 0 0 -0.0014426351774 
0 0 0.022458026521 0 0 -0.026278000496 0 0 0.020174255875 
0 0 0.00034285775977 0 0 -0.015218015046 0 0 0 
0 0 -0.045384667927 0 0 -0.025323439997 0 0 0.031568281395 
0 0 -0.02884209099 0 0 0.031650347743 0 0 -0.026102083784 
0 0 0.023919208277 0 0 -0.019606273755 0 0 0 

