<?xml version="1.0"?>
<VTKFile type="UnstructuredGrid" version="0.1" byte_order="LittleEndian" header_type="UInt32" compressor="vtkZLibDataCompressor">
  <UnstructuredGrid>
    <Piece NumberOfPoints="81" NumberOfCells="64">
      <PointData>
        <DataArray type="Float64" Name="q" NumberOfComponents="3" format="ascii" RangeMin="4.1730523011e-05" RangeMax="6.2711563705">
          -0.032226110222 0.99986641013 0 -0.028052722265 1.0000074738 0
          -0.024041223339 0.99999911856 0 -0.020038717835 1.0000015803 0
          -0.016028562856 0.99999991147 0 -0.012022669869 1.0000003808 0
          -0.0080144711816 0.9999999794 0 -0.0040075711395 1.0000000579 0
          0 1.0000002125 0 4.4399870234 0.70748455188 0
          3.8849821126 0.70747328863 0 3.3299851459 0.70747007255 0
          2.7749880173 0.70746939807 0 2.219989973 0.70746903092 0
          1.6649925703 0.70746891627 0 1.1099949412 0.70746884083 0
          0.55499750706 0.70746881901 0 -4.9303806576e-32 0.70746882078 0
          6.2711563703 5.75418531e-05 0 5.4872513717 4.3088467807e-05 0
          4.7033557572 4.2292135587e-05 0 3.9194622433 4.1766075868e-05 0
          3.1355695852 4.1791708519e-05 0 2.3516770412 4.173192698e-05 0
          1.5677846774 4.1751346264e-05 0 0.78389231894 4.174266233e-05 0
          1.8532074991e-20 4.1730523011e-05 0 4.4359784773 -0.70757734211 0
          3.8814793856 -0.70755578776 0 3.3269807648 -0.70755376984 0
          2.7724833588 -0.70755279179 0 2.217986429 -0.70755256401 0
          1.663489748 -0.70755238031 0 1.1089931314 -0.70755233859 0
          0.55449656249 -0.70755230458 0 -6.284326727e-16 -0.70755228765 0
          -3.1001526119e-15 -1.0005776944 0 -1.9586070631e-15 -1.0005888296 0
          9.2228787609e-16 -1.0005862618 0 -7.1172414126e-16 -1.0005853358 0
          2.2739629973e-17 -1.0005847623 0 1.7054722075e-17 -1.0005845953 0
          8.0702964848e-16 -1.0005844839 0 9.8203492539e-17 -1.0005844536 0
          4.4434875878e-16 -1.0005844522 0 -4.4359784773 -0.70757734211 0
          -3.8814793856 -0.70755578776 0 -3.3269807648 -0.70755376984 0
          -2.7724833588 -0.70755279179 0 -2.217986429 -0.70755256401 0
          -1.663489748 -0.70755238031 0 -1.1089931314 -0.70755233859 0
          -0.55449656249 -0.70755230458 0 6.284326727e-16 -0.70755228765 0
          -6.2711563703 5.7541853102e-05 0 -5.4872513717 4.3088467808e-05 0
          -4.7033557572 4.2292135589e-05 0 -3.9194622433 4.1766075868e-05 0
          -3.1355695852 4.179170852e-05 0 -2.3516770412 4.1731926981e-05 0
          -1.5677846774 4.1751346265e-05 0 -0.78389231894 4.1742662329e-05 0
          4.9303806576e-32 4.1730523011e-05 0 -4.4399870234 0.70748455188 0
          -3.8849821126 0.70747328863 0 -3.3299851459 0.70747007255 0
          -2.7749880173 0.70746939807 0 -2.219989973 0.70746903092 0
          -1.6649925703 0.70746891627 0 -1.1099949412 0.70746884083 0
          -0.55499750706 0.70746881901 0 0 0.70746882078 0
          0.032226110222 0.99986641013 0 0.028052722265 1.0000074738 0
          0.024041223339 0.99999911856 0 0.020038717835 1.0000015803 0
          0.016028562856 0.99999991147 0 0.012022669869 1.0000003808 0
          0.0080144711816 0.9999999794 0 0.0040075711395 1.0000000579 0
          0 1.0000002125 0
        </DataArray>
        <DataArray type="Float64" Name="q_x" format="ascii" RangeMin="-6.2711563703" RangeMax="6.2711563703">
          -0.032226110222 -0.028052722265 -0.024041223339 -0.020038717835 -0.016028562856 -0.012022669869
          -0.0080144711816 -0.0040075711395 0 4.4399870234 3.8849821126 3.3299851459
          2.7749880173 2.219989973 1.6649925703 1.1099949412 0.55499750706 -4.9303806576e-32
          6.2711563703 5.4872513717 4.7033557572 3.9194622433 3.1355695852 2.3516770412
          1.5677846774 0.78389231894 1.8532074991e-20 4.4359784773 3.8814793856 3.3269807648
          2.7724833588 2.217986429 1.663489748 1.1089931314 0.55449656249 -6.284326727e-16
          -3.1001526119e-15 -1.9586070631e-15 9.2228787609e-16 -7.1172414126e-16 2.2739629973e-17 1.7054722075e-17
          8.0702964848e-16 9.8203492539e-17 4.4434875878e-16 -4.4359784773 -3.8814793856 -3.3269807648
          -2.7724833588 -2.217986429 -1.663489748 -1.1089931314 -0.55449656249 6.284326727e-16
          -6.2711563703 -5.4872513717 -4.7033557572 -3.9194622433 -3.1355695852 -2.3516770412
          -1.5677846774 -0.78389231894 4.9303806576e-32 -4.4399870234 -3.8849821126 -3.3299851459
          -2.7749880173 -2.219989973 -1.6649925703 -1.1099949412 -0.55499750706 0
          0.032226110222 0.028052722265 0.024041223339 0.020038717835 0.016028562856 0.012022669869
          0.0080144711816 0.0040075711395 0
        </DataArray>
        <DataArray type="Float64" Name="q_y" format="ascii" RangeMin="-1.0005888296" RangeMax="1.0000074738">
          0.99986641013 1.0000074738 0.99999911856 1.0000015803 0.99999991147 1.0000003808
          0.9999999794 1.0000000579 1.0000002125 0.70748455188 0.70747328863 0.70747007255
          0.70746939807 0.70746903092 0.70746891627 0.70746884083 0.70746881901 0.70746882078
          5.75418531e-05 4.3088467807e-05 4.2292135587e-05 4.1766075868e-05 4.1791708519e-05 4.173192698e-05
          4.1751346264e-05 4.174266233e-05 4.1730523011e-05 -0.70757734211 -0.70755578776 -0.70755376984
          -0.70755279179 -0.70755256401 -0.70755238031 -0.70755233859 -0.70755230458 -0.70755228765
          -1.0005776944 -1.0005888296 -1.0005862618 -1.0005853358 -1.0005847623 -1.0005845953
          -1.0005844839 -1.0005844536 -1.0005844522 -0.70757734211 -0.70755578776 -0.70755376984
          -0.70755279179 -0.70755256401 -0.70755238031 -0.70755233859 -0.70755230458 -0.70755228765
          5.7541853102e-05 4.3088467808e-05 4.2292135589e-05 4.1766075868e-05 4.179170852e-05 4.1731926981e-05
          4.1751346265e-05 4.1742662329e-05 4.1730523011e-05 0.70748455188 0.70747328863 0.70747007255
          0.70746939807 0.70746903092 0.70746891627 0.70746884083 0.70746881901 0.70746882078
          0.99986641013 1.0000074738 0.99999911856 1.0000015803 0.99999991147 1.0000003808
          0.9999999794 1.0000000579 1.0000002125
        </DataArray>
        <DataArray type="Float64" Name="u" format="ascii" RangeMin="-2.0011705017" RangeMax="1.9999918844">
          1.9999918844 1.7500006254 1.5000005991 1.2500001648 1.0000001532 0.75000003084
          0.5000000353 0.25000000114 0 1.4149409124 1.2380714125 1.0612035975
          0.88433616446 0.70746887287 0.53060162795 0.35373441147 0.17686720307 0
          8.5354940733e-05 7.3367130241e-05 6.2672619073e-05 5.219853974e-05 4.1743606775e-05 3.1309803329e-05
          2.0871043216e-05 1.0436472132e-05 0 -1.415108336 -1.2382175029 -1.0613288141
          -0.88444053133 -0.7075523557 -0.53066424565 -0.35377615371 -0.17688807571 0
          -2.0011705017 -1.7510240424 -1.5008772288 -1.2507307747 -1.0005845315 -0.75043835963
          -0.5002922292 -0.25014611094 0 -1.415108336 -1.2382175029 -1.0613288141
          -0.88444053133 -0.7075523557 -0.53066424565 -0.35377615371 -0.17688807571 0
          8.5354940736e-05 7.3367130244e-05 6.2672619074e-05 5.219853974e-05 4.1743606775e-05 3.130980333e-05
          2.0871043216e-05 1.0436472132e-05 0 1.4149409124 1.2380714125 1.0612035975
          0.88433616446 0.70746887287 0.53060162795 0.35373441147 0.17686720307 0
          1.9999918844 1.7500006254 1.5000005991 1.2500001648 1.0000001532 0.75000003084
          0.5000000353 0.25000000114 0
        </DataArray>
      </PointData>
      <CellData>
        <DataArray type="Float64" Name="a(e,e)^0.5, e=u-u^h" format="ascii" RangeMin="0.14789108021" RangeMax="1.3373792021">
          0.66764053192 0.58964203449 0.51344038405 0.4399702004 0.3708584321 0.30904308151
          0.25978592328 0.2312558665 1.3373792021 1.1605624889 0.98403469714 0.80798521892
          0.63281338247 0.4595239649 0.29149374924 0.14789108021 1.3373792021 1.1605624889
          0.98403469714 0.80798521892 0.63281338247 0.4595239649 0.29149374924 0.14789108021
          0.66764053192 0.58964203449 0.51344038405 0.4399702004 0.3708584321 0.30904308151
          0.25978592328 0.2312558665 0.66764053192 0.58964203449 0.51344038405 0.4399702004
          0.3708584321 0.30904308151 0.25978592328 0.2312558665 1.3373792021 1.1605624889
          0.98403469714 0.80798521892 0.63281338247 0.4595239649 0.29149374924 0.14789108021
          1.3373792021 1.1605624889 0.98403469714 0.80798521892 0.63281338247 0.4595239649
          0.29149374924 0.14789108021 0.66764053192 0.58964203449 0.51344038405 0.4399702004
          0.3708584321 0.30904308151 0.25978592328 0.2312558665
        </DataArray>
        <DataArray type="Float64" Name="a(u,u)^0.5" format="ascii" RangeMin="0.048320332495" RangeMax="1.4786404929">
          1.4786404929 1.1556585176 0.97824654271 0.80092623577 0.62377569747 0.44699676707
          0.27131674465 0.1025480901 0.69673125603 0.54454266941 0.46094666245 0.37739388511
          0.29392111814 0.21062344884 0.12784358394 0.048320332495 0.69678979201 0.54458857355
          0.46098554526 0.37742573069 0.29394591921 0.21064122254 0.12785437173 0.048324410062
          1.4786093923 1.1556339117 0.97822566345 0.80090912884 0.62376237303 0.446987218
          0.2713109487 0.10254589937 1.4786093923 1.1556339117 0.97822566345 0.80090912884
          0.62376237303 0.446987218 0.2713109487 0.10254589937 0.69678979201 0.54458857355
          0.46098554526 0.37742573069 0.29394591921 0.21064122254 0.12785437173 0.048324410062
          0.69673125603 0.54454266941 0.46094666245 0.37739388511 0.29392111814 0.21062344884
          0.12784358394 0.048320332495 1.4786404929 1.1556585176 0.97824654271 0.80092623577
          0.62377569747 0.44699676707 0.27131674465 0.1025480901
        </DataArray>
        <DataArray type="Float64" Name="a(u^h,u^h)^0.5" format="ascii" RangeMin="0.14791277518" RangeMax="1.33816599">
          0.66657661651 0.58873816128 0.51269662132 0.43938829611 0.37043956227 0.30878478119
          0.25967240304 0.23123714628 1.3378185924 1.1609422758 0.98435539139 0.80824681383
          0.63301578779 0.45966680361 0.29157614606 0.14791277518 1.33816599 1.1612425208
          0.984609429 0.80845498779 0.63317817705 0.45978367713 0.29164817511 0.14794416914
          0.66622339007 0.5884354283 0.51244609258 0.43919062223 0.3702950346 0.30869230239
          0.25962658439 0.2312217059 0.66622339007 0.5884354283 0.51244609258 0.43919062223
          0.3702950346 0.30869230239 0.25962658439 0.2312217059 1.33816599 1.1612425208
          0.984609429 0.80845498779 0.63317817705 0.45978367713 0.29164817511 0.14794416914
          1.3378185924 1.1609422758 0.98435539139 0.80824681383 0.63301578779 0.45966680361
          0.29157614606 0.14791277518 0.66657661651 0.58873816128 0.51269662132 0.43938829611
          0.37043956227 0.30878478119 0.25967240304 0.23123714628
        </DataArray>
      </CellData>
      <Points>
        <DataArray type="Float64" Name="Points" NumberOfComponents="3" format="ascii" RangeMin="0" RangeMax="2.8284271247">
          0 0 0 0 0.25 0
          0 0.5 0 0 0.75 0
          0 1 0 0 1.25 0
          0 1.5 0 0 1.75 0
          0 2 0 0.25 0 0
          0.25 0.25 0 0.25 0.5 0
          0.25 0.75 0 0.25 1 0
          0.25 1.25 0 0.25 1.5 0
          0.25 1.75 0 0.25 2 0
          0.5 0 0 0.5 0.25 0
          0.5 0.5 0 0.5 0.75 0
          0.5 1 0 0.5 1.25 0
          0.5 1.5 0 0.5 1.75 0
          0.5 2 0 0.75 0 0
          0.75 0.25 0 0.75 0.5 0
          0.75 0.75 0 0.75 1 0
          0.75 1.25 0 0.75 1.5 0
          0.75 1.75 0 0.75 2 0
          1 0 0 1 0.25 0
          1 0.5 0 1 0.75 0
          1 1 0 1 1.25 0
          1 1.5 0 1 1.75 0
          1 2 0 1.25 0 0
          1.25 0.25 0 1.25 0.5 0
          1.25 0.75 0 1.25 1 0
          1.25 1.25 0 1.25 1.5 0
          1.25 1.75 0 1.25 2 0
          1.5 0 0 1.5 0.25 0
          1.5 0.5 0 1.5 0.75 0
          1.5 1 0 1.5 1.25 0
          1.5 1.5 0 1.5 1.75 0
          1.5 2 0 1.75 0 0
          1.75 0.25 0 1.75 0.5 0
          1.75 0.75 0 1.75 1 0
          1.75 1.25 0 1.75 1.5 0
          1.75 1.75 0 1.75 2 0
          2 0 0 2 0.25 0
          2 0.5 0 2 0.75 0
          2 1 0 2 1.25 0
          2 1.5 0 2 1.75 0
          2 2 0
        </DataArray>
      </Points>
      <Cells>
        <DataArray type="Int64" Name="connectivity" format="ascii" RangeMin="0" RangeMax="80">
          0 9 10 1 1 10
          11 2 2 11 12 3
          3 12 13 4 4 13
          14 5 5 14 15 6
          6 15 16 7 7 16
          17 8 9 18 19 10
          10 19 20 11 11 20
          21 12 12 21 22 13
          13 22 23 14 14 23
          24 15 15 24 25 16
          16 25 26 17 18 27
          28 19 19 28 29 20
          20 29 30 21 21 30
          31 22 22 31 32 23
          23 32 33 24 24 33
          34 25 25 34 35 26
          27 36 37 28 28 37
          38 29 29 38 39 30
          30 39 40 31 31 40
          41 32 32 41 42 33
          33 42 43 34 34 43
          44 35 36 45 46 37
          37 46 47 38 38 47
          48 39 39 48 49 40
          40 49 50 41 41 50
          51 42 42 51 52 43
          43 52 53 44 45 54
          55 46 46 55 56 47
          47 56 57 48 48 57
          58 49 49 58 59 50
          50 59 60 51 51 60
          61 52 52 61 62 53
          54 63 64 55 55 64
          65 56 56 65 66 57
          57 66 67 58 58 67
          68 59 59 68 69 60
          60 69 70 61 61 70
          71 62 63 72 73 64
          64 73 74 65 65 74
          75 66 66 75 76 67
          67 76 77 68 68 77
          78 69 69 78 79 70
          70 79 80 71
        </DataArray>
        <DataArray type="Int64" Name="offsets" format="ascii" RangeMin="4" RangeMax="256">
          4 8 12 16 20 24
          28 32 36 40 44 48
          52 56 60 64 68 72
          76 80 84 88 92 96
          100 104 108 112 116 120
          124 128 132 136 140 144
          148 152 156 160 164 168
          172 176 180 184 188 192
          196 200 204 208 212 216
          220 224 228 232 236 240
          244 248 252 256
        </DataArray>
        <DataArray type="UInt8" Name="types" format="ascii" RangeMin="9" RangeMax="9">
          9 9 9 9 9 9
          9 9 9 9 9 9
          9 9 9 9 9 9
          9 9 9 9 9 9
          9 9 9 9 9 9
          9 9 9 9 9 9
          9 9 9 9 9 9
          9 9 9 9 9 9
          9 9 9 9 9 9
          9 9 9 9 9 9
          9 9 9 9
        </DataArray>
      </Cells>
    </Piece>
  </UnstructuredGrid>
</VTKFile>
