<?xml version="1.0"?>
<VTKFile type="UnstructuredGrid" version="0.1" byte_order="LittleEndian" header_type="UInt32" compressor="vtkZLibDataCompressor">
  <UnstructuredGrid>
    <Piece NumberOfPoints="81" NumberOfCells="64">
      <PointData>
        <DataArray type="Float64" Name="theta" format="ascii" RangeMin="0" RangeMax="0.033277805549">
          0 0 0 0 0 0
          0 0 0 0 8.991578111e-07 3.8271637289e-06
          8.7893530928e-06 1.5802796607e-05 2.489727638e-05 3.6111246533e-05 4.9479010823e-05 6.4995713963e-05
          0 7.8776853904e-06 3.199252625e-05 7.2352049245e-05 0.00012899181973 0.00020197928141
          0.00029140985954 0.00039738842387 0.0005199657117 0 2.7023680102e-05 0.00010885241271
          0.00024548945003 0.000436990186 0.00068347185364 0.00098512059577 0.0013421802834 0.001754884277
          0 6.4443180826e-05 0.00025880139215 0.00058306431198 0.0010373048331 0.001621699236
          0.0023365593909 0.0031823667027 0.0041597256936 0 0.00012626972124 0.00050629524896
          0.0011400432157 0.0020275950425 0.0031691758607 0.0045652373962 0.0062165782655 0.0081244642453
          0 0.00021867027264 0.00087587240746 0.0019715490843 0.0035057711427 0.005478770715
          0.0078910632904 0.010743770834 0.014039074216 0 0.00034784228812 0.001392164925
          0.0031329107254 0.0055701236275 0.0087039495643 0.012534790252 0.01706356688 0.022293529889
          0 0.0005199657117 0.0020798628468 0.0046796914053 0.0083194513872 0.012999142793
          0.018718765621 0.025478319873 0.033277805549
        </DataArray>
        <DataArray type="Float64" Name="theta_x" format="ascii" RangeMin="-0.00025998285585" RangeMax="0.099573433791">
          0 -4.9612195248e-06 -1.8050349406e-05 -3.9218480634e-05 -6.8332967841e-05 -0.00010517216526
          -0.00014946858283 -0.0002010177338 -0.00025998285585 0 2.6470656371e-05 0.00010779996721
          0.00024402075843 0.00043527476136 0.00068182675974 0.00098404423102 0.0013423187562 0.0017567992287
          0 9.822321379e-05 0.00039501138614 0.0008903595059 0.0015844226309 0.0024775486119
          0.0035703187021 0.0048635347605 0.0063580902581 0 0.00022017477419 0.00088293968319
          0.001988225308 0.0035361859135 0.005527268041 0.0079623427321 0.010842913404 0.01417109324
          0 0.00039082399499 0.0015652342237 0.0035230810536 0.0062644783146 0.0097898816888
          0.014100409909 0.019198289738 0.025087669724 0 0.00061075457216 0.0024438257351
          0.005499008873 0.0097762996055 0.015275970052 0.021998935431 0.029948083592 0.039129447402
          0 0.00087991551021 0.0035180838556 0.0079143784226 0.014068645962 0.021980585328
          0.031650102288 0.043078140918 0.056274798581 0 0.0012000745068 0.004795500765
          0.010786480901 0.019172739343 0.029953276493 0.043126142221 0.058686706571 0.076631861714
          0 0.0015610914987 0.0062366056136 0.014027290445 0.024932685801 0.038951662193
          0.056079518971 0.076307188908 0.099573433791
        </DataArray>
        <DataArray type="Float64" Name="theta_y" format="ascii" RangeMin="-5.0436721385e-06" RangeMax="0.066555611098">
          0 0 0 0 0 0
          0 0 0 -9.2196135453e-07 1.5306852792e-05 3.1550083929e-05
          4.787889265e-05 6.4396812277e-05 8.1193778868e-05 9.8310912131e-05 0.00011555625053 0.00013265454243
          -1.9375644955e-06 0.00012797018172 0.00025787731416 0.00038794557666 0.00051842661711 0.00064956614996
          0.0007815537573 0.00091420386495 0.0010470103221 -3.0721253546e-06 0.00043541877129 0.00087383670416
          0.0013124656413 0.0017517781932 0.0021923021152 0.0026345822288 0.0030788742651 0.0035246099798
          -4.2139760331e-06 0.0010352333389 0.0020744584919 0.0031138919068 0.0041543001759 0.0051966246062
          0.0062420980376 0.0072921461036 0.008346347028 -5.0436721385e-06 0.0020252357163 0.0040550773409
          0.0060850520617 0.0081162036807 0.010149970493 0.012188528681 0.014235734375 0.016292324238
          -5.0165180893e-06 0.0035035694404 0.0070115169143 0.010519451047 0.014028536333 0.017540423136
          0.02105827358 0.0245899392 0.028138440839 -3.4109285064e-06 0.005568734078 0.011140284061
          0.016711751547 0.022283885137 0.027858180475 0.033436363995 0.039031389669 0.044654966384
          -6.9388939039e-19 0.0083194513872 0.016638902774 0.024958354162 0.033277805549 0.041597256936
          0.049916708323 0.058236159711 0.066555611098
        </DataArray>
      </PointData>
      <CellData>
      </CellData>
      <Points>
        <DataArray type="Float64" Name="Points" NumberOfComponents="3" format="ascii" RangeMin="0" RangeMax="1.4142135624">
          0 0 0 0 0.125 0
          0 0.25 0 0 0.375 0
          0 0.5 0 0 0.625 0
          0 0.75 0 0 0.875 0
          0 1 0 0.125 0 0
          0.125 0.125 0 0.125 0.25 0
          0.125 0.375 0 0.125 0.5 0
          0.125 0.625 0 0.125 0.75 0
          0.125 0.875 0 0.125 1 0
          0.25 0 0 0.25 0.125 0
          0.25 0.25 0 0.25 0.375 0
          0.25 0.5 0 0.25 0.625 0
          0.25 0.75 0 0.25 0.875 0
          0.25 1 0 0.375 0 0
          0.375 0.125 0 0.375 0.25 0
          0.375 0.375 0 0.375 0.5 0
          0.375 0.625 0 0.375 0.75 0
          0.375 0.875 0 0.375 1 0
          0.5 0 0 0.5 0.125 0
          0.5 0.25 0 0.5 0.375 0
          0.5 0.5 0 0.5 0.625 0
          0.5 0.75 0 0.5 0.875 0
          0.5 1 0 0.625 0 0
          0.625 0.125 0 0.625 0.25 0
          0.625 0.375 0 0.625 0.5 0
          0.625 0.625 0 0.625 0.75 0
          0.625 0.875 0 0.625 1 0
          0.75 0 0 0.75 0.125 0
          0.75 0.25 0 0.75 0.375 0
          0.75 0.5 0 0.75 0.625 0
          0.75 0.75 0 0.75 0.875 0
          0.75 1 0 0.875 0 0
          0.875 0.125 0 0.875 0.25 0
          0.875 0.375 0 0.875 0.5 0
          0.875 0.625 0 0.875 0.75 0
          0.875 0.875 0 0.875 1 0
          1 0 0 1 0.125 0
          1 0.25 0 1 0.375 0
          1 0.5 0 1 0.625 0
          1 0.75 0 1 0.875 0
          1 1 0
        </DataArray>
      </Points>
      <Cells>
        <DataArray type="Int64" Name="connectivity" format="ascii" RangeMin="0" RangeMax="80">
          0 9 10 1 1 10
          11 2 2 11 12 3
          3 12 13 4 4 13
          14 5 5 14 15 6
          6 15 16 7 7 16
          17 8 9 18 19 10
          10 19 20 11 11 20
          21 12 12 21 22 13
          13 22 23 14 14 23
          24 15 15 24 25 16
          16 25 26 17 18 27
          28 19 19 28 29 20
          20 29 30 21 21 30
          31 22 22 31 32 23
          23 32 33 24 24 33
          34 25 25 34 35 26
          27 36 37 28 28 37
          38 29 29 38 39 30
          30 39 40 31 31 40
          41 32 32 41 42 33
          33 42 43 34 34 43
          44 35 36 45 46 37
          37 46 47 38 38 47
          48 39 39 48 49 40
          40 49 50 41 41 50
          51 42 42 51 52 43
          43 52 53 44 45 54
          55 46 46 55 56 47
          47 56 57 48 48 57
          58 49 49 58 59 50
          50 59 60 51 51 60
          61 52 52 61 62 53
          54 63 64 55 55 64
          65 56 56 65 66 57
          57 66 67 58 58 67
          68 59 59 68 69 60
          60 69 70 61 61 70
          71 62 63 72 73 64
          64 73 74 65 65 74
          75 66 66 75 76 67
          67 76 77 68 68 77
          78 69 69 78 79 70
          70 79 80 71
        </DataArray>
        <DataArray type="Int64" Name="offsets" format="ascii" RangeMin="4" RangeMax="256">
          4 8 12 16 20 24
          28 32 36 40 44 48
          52 56 60 64 68 72
          76 80 84 88 92 96
          100 104 108 112 116 120
          124 128 132 136 140 144
          148 152 156 160 164 168
          172 176 180 184 188 192
          196 200 204 208 212 216
          220 224 228 232 236 240
          244 248 252 256
        </DataArray>
        <DataArray type="UInt8" Name="types" format="ascii" RangeMin="9" RangeMax="9">
          9 9 9 9 9 9
          9 9 9 9 9 9
          9 9 9 9 9 9
          9 9 9 9 9 9
          9 9 9 9 9 9
          9 9 9 9 9 9
          9 9 9 9 9 9
          9 9 9 9 9 9
          9 9 9 9 9 9
          9 9 9 9 9 9
          9 9 9 9
        </DataArray>
      </Cells>
    </Piece>
  </UnstructuredGrid>
</VTKFile>
