<?xml version="1.0"?>
<VTKFile type="UnstructuredGrid" version="0.1" byte_order="LittleEndian" header_type="UInt32" compressor="vtkZLibDataCompressor">
  <UnstructuredGrid>
    <Piece NumberOfPoints="81" NumberOfCells="64">
      <PointData>
        <DataArray type="Float64" Name="theta" format="ascii" RangeMin="0" RangeMax="0.066223110265">
          0 0 0 0 0 0
          0 0 0 0 1.8046698028e-06 7.653837659e-06
          1.7561310494e-05 3.1558129959e-05 4.9692268616e-05 7.2018941228e-05 9.8577238151e-05 0.00012934201224
          0 1.5720995303e-05 6.3773246003e-05 0.00014417998121 0.00025700506442 0.0004023550338
          0.00058036428455 0.00079115421243 0.0010347360979 0 5.3874691658e-05 0.00021685285641
          0.00048895799617 0.00087028783677 0.0013610232184 0.0019614203959 0.0026717645962 0.0034922343304
          0 0.00012841890722 0.00051544542642 0.0011610898513 0.0020654786817 0.0032288769866
          0.0046517053698 0.0063345279545 0.0082778887831 0 0.00025154486355 0.0010081882877
          0.002269912973 0.0040368581098 0.0063093548162 0.0090879990116 0.012373725041 0.01616775153
          0 0.0004354824465 0.0017438155036 0.0039249500066 0.006979006914 0.010906320005
          0.015707556965 0.021384017027 0.027937874643 0 0.00069248189177 0.0027711388274
          0.0062359152081 0.011086884098 0.017324255922 0.024948535475 0.033960789878 0.044364310197
          0 0.0010347360979 0.0041389443916 0.009312624881 0.016555777566 0.025868402447
          0.037250499524 0.050702068797 0.066223110265
        </DataArray>
        <DataArray type="Float64" Name="theta_x" format="ascii" RangeMin="-0.00051736804895" RangeMax="0.19815196275">
          0 -9.778908808e-06 -3.5686047949e-05 -7.7602393201e-05 -0.00013528476548 -0.00020837227644
          -0.00029647513651 -0.00039936476254 -0.00051736804895 0 5.2844200325e-05 0.00021493026047
          0.00048635495462 0.00086737336336 0.0013584051795 0.0019599700435 0.0026725201925 0.0034960451002
          0 0.00019578555655 0.00078684835723 0.0017732320641 0.0031552066468 0.004933302281
          0.0071083119814 0.0096811784053 0.01265265258 0 0.00043868315973 0.0017583481961
          0.0039589466023 0.0070407373737 0.011004371528 0.015851004618 0.021582404835 0.0282005936
          0 0.00077844866623 0.0031165722392 0.0070142041651 0.012471524863 0.019489171038
          0.028068575038 0.038212352334 0.049924671746 0 0.0012160703432 0.004864952171
          0.010946387667 0.019460362183 0.03040721337 0.043788060854 0.05960621541 0.077867926299
          0 0.0017511625315 0.0070015572039 0.015750994802 0.027999205475 0.043745725328
          0.062990310874 0.08573400553 0.11198731798 0 0.0023869393706 0.0095401218763
          0.021459715038 0.038145236594 0.059595270059 0.08580724072 0.11677582617 0.1524980432
          0 0.0031033180894 0.012401835954 0.027896310947 0.049586035831 0.077469292473
          0.11154040671 0.15178869408 0.19815196275
        </DataArray>
        <DataArray type="Float64" Name="theta_y" format="ascii" RangeMin="-8.2181095177e-06" RangeMax="0.13244622053">
          0 0 0 0 0 0
          0 0 0 -1.7287278801e-06 3.0607820977e-05 6.3004607109e-05
          9.5577038493e-05 0.00012847051555 0.0001617905281 0.00019553227643 0.00022933483849 0.00026279696493
          -3.5477594103e-06 0.00025508295602 0.00051379389538 0.00077284122061 0.0010325769704 0.0012932986402
          0.0015551262328 0.0018175176793 0.0020796657184 -5.4372110991e-06 0.00086740875746 0.0017402760714
          0.0026136005584 0.0034880399497 0.0043642468554 0.00524272081 0.0061231523745 0.0070044108464
          -7.1665720665e-06 0.0020617997211 0.004130621891 0.0061999391434 0.008270807417 0.010344404684
          0.012422018496 0.014504315312 0.016589958862 -8.2181095177e-06 0.0040328037246 0.008073420969
          0.012114449965 0.016157313545 0.020203807745 0.024256348841 0.028317946416 0.032388053239
          -7.8150757562e-06 0.0069753443219 0.013957845259 0.020940546049 0.02792500358 0.034913272416
          0.041908963542 0.048919251042 0.055945695916 -5.0950622448e-06 0.011084634582 0.02217373005
          0.03326285124 0.04435301117 0.055445984599 0.066543925281 0.077659550291 0.088803564095
          -1.3877787808e-18 0.016555777566 0.033111555133 0.049667332699 0.066223110265 0.082778887831
          0.099334665398 0.11589044296 0.13244622053
        </DataArray>
      </PointData>
      <CellData>
      </CellData>
      <Points>
        <DataArray type="Float64" Name="Points" NumberOfComponents="3" format="ascii" RangeMin="0" RangeMax="1.4142135624">
          0 0 0 0 0.125 0
          0 0.25 0 0 0.375 0
          0 0.5 0 0 0.625 0
          0 0.75 0 0 0.875 0
          0 1 0 0.125 0 0
          0.125 0.125 0 0.125 0.25 0
          0.125 0.375 0 0.125 0.5 0
          0.125 0.625 0 0.125 0.75 0
          0.125 0.875 0 0.125 1 0
          0.25 0 0 0.25 0.125 0
          0.25 0.25 0 0.25 0.375 0
          0.25 0.5 0 0.25 0.625 0
          0.25 0.75 0 0.25 0.875 0
          0.25 1 0 0.375 0 0
          0.375 0.125 0 0.375 0.25 0
          0.375 0.375 0 0.375 0.5 0
          0.375 0.625 0 0.375 0.75 0
          0.375 0.875 0 0.375 1 0
          0.5 0 0 0.5 0.125 0
          0.5 0.25 0 0.5 0.375 0
          0.5 0.5 0 0.5 0.625 0
          0.5 0.75 0 0.5 0.875 0
          0.5 1 0 0.625 0 0
          0.625 0.125 0 0.625 0.25 0
          0.625 0.375 0 0.625 0.5 0
          0.625 0.625 0 0.625 0.75 0
          0.625 0.875 0 0.625 1 0
          0.75 0 0 0.75 0.125 0
          0.75 0.25 0 0.75 0.375 0
          0.75 0.5 0 0.75 0.625 0
          0.75 0.75 0 0.75 0.875 0
          0.75 1 0 0.875 0 0
          0.875 0.125 0 0.875 0.25 0
          0.875 0.375 0 0.875 0.5 0
          0.875 0.625 0 0.875 0.75 0
          0.875 0.875 0 0.875 1 0
          1 0 0 1 0.125 0
          1 0.25 0 1 0.375 0
          1 0.5 0 1 0.625 0
          1 0.75 0 1 0.875 0
          1 1 0
        </DataArray>
      </Points>
      <Cells>
        <DataArray type="Int64" Name="connectivity" format="ascii" RangeMin="0" RangeMax="80">
          0 9 10 1 1 10
          11 2 2 11 12 3
          3 12 13 4 4 13
          14 5 5 14 15 6
          6 15 16 7 7 16
          17 8 9 18 19 10
          10 19 20 11 11 20
          21 12 12 21 22 13
          13 22 23 14 14 23
          24 15 15 24 25 16
          16 25 26 17 18 27
          28 19 19 28 29 20
          20 29 30 21 21 30
          31 22 22 31 32 23
          23 32 33 24 24 33
          34 25 25 34 35 26
          27 36 37 28 28 37
          38 29 29 38 39 30
          30 39 40 31 31 40
          41 32 32 41 42 33
          33 42 43 34 34 43
          44 35 36 45 46 37
          37 46 47 38 38 47
          48 39 39 48 49 40
          40 49 50 41 41 50
          51 42 42 51 52 43
          43 52 53 44 45 54
          55 46 46 55 56 47
          47 56 57 48 48 57
          58 49 49 58 59 50
          50 59 60 51 51 60
          61 52 52 61 62 53
          54 63 64 55 55 64
          65 56 56 65 66 57
          57 66 67 58 58 67
          68 59 59 68 69 60
          60 69 70 61 61 70
          71 62 63 72 73 64
          64 73 74 65 65 74
          75 66 66 75 76 67
          67 76 77 68 68 77
          78 69 69 78 79 70
          70 79 80 71
        </DataArray>
        <DataArray type="Int64" Name="offsets" format="ascii" RangeMin="4" RangeMax="256">
          4 8 12 16 20 24
          28 32 36 40 44 48
          52 56 60 64 68 72
          76 80 84 88 92 96
          100 104 108 112 116 120
          124 128 132 136 140 144
          148 152 156 160 164 168
          172 176 180 184 188 192
          196 200 204 208 212 216
          220 224 228 232 236 240
          244 248 252 256
        </DataArray>
        <DataArray type="UInt8" Name="types" format="ascii" RangeMin="9" RangeMax="9">
          9 9 9 9 9 9
          9 9 9 9 9 9
          9 9 9 9 9 9
          9 9 9 9 9 9
          9 9 9 9 9 9
          9 9 9 9 9 9
          9 9 9 9 9 9
          9 9 9 9 9 9
          9 9 9 9 9 9
          9 9 9 9 9 9
          9 9 9 9
        </DataArray>
      </Cells>
    </Piece>
  </UnstructuredGrid>
</VTKFile>
