<?xml version="1.0"?>
<VTKFile type="UnstructuredGrid" version="0.1" byte_order="LittleEndian" header_type="UInt32" compressor="vtkZLibDataCompressor">
  <UnstructuredGrid>
    <Piece NumberOfPoints="125" NumberOfCells="64">
      <PointData>
        <DataArray type="Float64" Name="q" NumberOfComponents="3" format="ascii" RangeMin="0.024311444285" RangeMax="21.703076844">
          12.530277258 12.530277258 12.530277258 -0.61891987601 -0.61891987601 -1.4251656954
          1.3394308136 1.3394308136 -7.2970703946 -0.70031314693 -0.70031314693 -2.4180924277
          -0.48665778025 -0.48665778025 0.32593660851 -0.61891987601 -1.4251656954 -0.61891987601
          1.5579115621 -4.3393335602 -4.3393335602 -0.32011932417 -3.1537740224 -5.8744446104
          -0.068062885118 0.11598472393 -1.3693719075 -0.055632135796 -0.10109391846 -1.2567231928
          1.3394308136 -7.2970703946 1.3394308136 -0.32011932417 -5.8744446104 -3.1537740224
          -0.35731517646 -1.9466822099 -1.9466822099 0.10472049037 0.11163780132 -0.15521436338
          0.056829974355 -0.026262188607 -0.19130791105 -0.70031314694 -2.4180924277 -0.70031314693
          -0.068062885118 -1.3693719075 0.11598472393 0.10472049037 -0.15521436338 0.11163780132
          -0.027546141049 -0.13185611906 -0.13185611906 -0.015154230551 -0.06093684246 0.0015774171561
          -0.48665778025 0.32593660851 -0.48665778025 -0.055632135796 -1.2567231928 -0.10109391846
          0.056829974355 -0.19130791105 -0.026262188607 -0.015154230551 0.0015774171561 -0.06093684246
          -0.022924038526 0.0057242807793 0.0057242807793 -1.4251656954 -0.61891987601 -0.61891987601
          -4.3393335602 1.5579115621 -4.3393335602 -3.1537740224 -0.32011932417 -5.8744446104
          0.11598472393 -0.068062885118 -1.3693719075 -0.10109391846 -0.055632135796 -1.2567231928
          -4.3393335602 -4.3393335602 1.5579115621 -4.9067604872 -4.9067604872 -4.9067604872
          -2.0765429458 -2.0765429458 -4.177626599 0.18656823567 0.18656823567 -0.59672341301
          0.0013991242989 0.0013991242989 -0.61167584055 -3.1537740224 -5.8744446104 -0.32011932417
          -2.0765429458 -4.177626599 -2.0765429458 -0.2801912956 -0.94339814364 -0.94339814364
          -0.03088654316 -0.030970570948 -0.1377874046 -0.035037031464 -0.054716951711 0.043544123801
          0.11598472393 -1.3693719075 -0.068062885118 0.18656823567 -0.59672341301 0.18656823567
          -0.03088654316 -0.1377874046 -0.030970570948 -0.044371820048 -0.12653001182 -0.12653001182
          -0.013274499304 -0.05360602502 -0.085281674496 -0.10109391846 -1.2567231928 -0.055632135796
          0.0013991242989 -0.61167584055 0.0013991242989 -0.035037031464 0.043544123801 -0.054716951711
          -0.013274499304 -0.085281674496 -0.05360602502 -0.011367460615 -0.070696152661 -0.070696152661
          -7.2970703946 1.3394308136 1.3394308136 -5.8744446104 -0.32011932417 -3.1537740224
          -1.9466822099 -0.35731517646 -1.9466822099 0.11163780132 0.10472049037 -0.15521436338
          -0.026262188607 0.056829974355 -0.19130791105 -5.8744446104 -3.1537740224 -0.32011932417
          -4.177626599 -2.0765429458 -2.0765429458 -0.94339814364 -0.2801912956 -0.94339814364
          -0.030970570948 -0.03088654316 -0.1377874046 -0.054716951711 -0.035037031464 0.043544123801
          -1.9466822099 -1.9466822099 -0.35731517646 -0.94339814364 -0.94339814364 -0.2801912956
          -0.17139949002 -0.17139949002 -0.17139949002 -0.099473833388 -0.099473833388 -0.13779086866
          -0.044102191248 -0.044102191248 -0.058763564787 0.11163780132 -0.15521436338 0.10472049037
          -0.030970570948 -0.1377874046 -0.03088654316 -0.099473833388 -0.13779086866 -0.099473833388
          -0.043062478354 -0.075530541384 -0.075530541384 -0.021578082776 -0.034378681054 -0.061571121384
          -0.026262188607 -0.19130791105 0.056829974355 -0.054716951711 0.043544123801 -0.035037031464
          -0.044102191248 -0.058763564787 -0.044102191248 -0.021578082776 -0.061571121384 -0.034378681054
          -0.011671557593 -0.041090639147 -0.041090639147 -2.4180924277 -0.70031314693 -0.70031314693
          -1.3693719075 -0.068062885118 0.11598472393 -0.15521436338 0.10472049037 0.11163780132
          -0.13185611906 -0.027546141049 -0.13185611906 -0.06093684246 -0.015154230551 0.0015774171561
          -1.3693719075 0.11598472393 -0.068062885118 -0.59672341301 0.18656823567 0.18656823567
          -0.1377874046 -0.03088654316 -0.030970570948 -0.12653001182 -0.044371820048 -0.12653001182
          -0.05360602502 -0.013274499304 -0.085281674496 -0.15521436338 0.11163780132 0.10472049037
          -0.1377874046 -0.030970570948 -0.03088654316 -0.13779086866 -0.099473833388 -0.099473833388
          -0.075530541384 -0.043062478354 -0.075530541384 -0.034378681054 -0.021578082776 -0.061571121384
          -0.13185611906 -0.13185611906 -0.027546141049 -0.12653001182 -0.12653001182 -0.044371820048
          -0.075530541384 -0.075530541384 -0.043062478354 -0.04440944844 -0.04440944844 -0.04440944844
          -0.028162815948 -0.028162815948 -0.03355887441 -0.06093684246 0.0015774171561 -0.015154230551
          -0.05360602502 -0.085281674496 -0.013274499304 -0.034378681054 -0.061571121384 -0.021578082776
          -0.028162815948 -0.03355887441 -0.028162815948 -0.018941623404 -0.022803845596 -0.022803845596
          0.32593660851 -0.48665778025 -0.48665778025 -1.2567231928 -0.055632135796 -0.10109391846
          -0.19130791105 0.056829974355 -0.026262188607 0.0015774171561 -0.015154230551 -0.06093684246
          0.0057242807793 -0.022924038526 0.0057242807793 -1.2567231928 -0.10109391846 -0.055632135796
          -0.61167584055 0.0013991242989 0.0013991242989 0.043544123801 -0.035037031464 -0.054716951711
          -0.085281674496 -0.013274499304 -0.05360602502 -0.070696152661 -0.011367460615 -0.070696152661
          -0.19130791105 -0.026262188607 0.056829974355 0.043544123801 -0.054716951711 -0.035037031464
          -0.058763564787 -0.044102191248 -0.044102191248 -0.061571121384 -0.021578082776 -0.034378681054
          -0.041090639147 -0.011671557593 -0.041090639147 0.0015774171561 -0.06093684246 -0.015154230551
          -0.085281674496 -0.05360602502 -0.013274499304 -0.061571121384 -0.034378681054 -0.021578082776
          -0.03355887441 -0.028162815948 -0.028162815948 -0.022803845596 -0.018941623404 -0.022803845596
          0.0057242807793 0.0057242807793 -0.022924038526 -0.070696152661 -0.070696152661 -0.011367460615
          -0.041090639147 -0.041090639147 -0.011671557593 -0.022803845596 -0.022803845596 -0.018941623404
          -0.015283240995 -0.015283240995 -0.015283240995
        </DataArray>
        <DataArray type="Float64" Name="q_x" format="ascii" RangeMin="-7.2970703946" RangeMax="12.530277258">
          12.530277258 -0.61891987601 1.3394308136 -0.70031314693 -0.48665778025 -0.61891987601
          1.5579115621 -0.32011932417 -0.068062885118 -0.055632135796 1.3394308136 -0.32011932417
          -0.35731517646 0.10472049037 0.056829974355 -0.70031314694 -0.068062885118 0.10472049037
          -0.027546141049 -0.015154230551 -0.48665778025 -0.055632135796 0.056829974355 -0.015154230551
          -0.022924038526 -1.4251656954 -4.3393335602 -3.1537740224 0.11598472393 -0.10109391846
          -4.3393335602 -4.9067604872 -2.0765429458 0.18656823567 0.0013991242989 -3.1537740224
          -2.0765429458 -0.2801912956 -0.03088654316 -0.035037031464 0.11598472393 0.18656823567
          -0.03088654316 -0.044371820048 -0.013274499304 -0.10109391846 0.0013991242989 -0.035037031464
          -0.013274499304 -0.011367460615 -7.2970703946 -5.8744446104 -1.9466822099 0.11163780132
          -0.026262188607 -5.8744446104 -4.177626599 -0.94339814364 -0.030970570948 -0.054716951711
          -1.9466822099 -0.94339814364 -0.17139949002 -0.099473833388 -0.044102191248 0.11163780132
          -0.030970570948 -0.099473833388 -0.043062478354 -0.021578082776 -0.026262188607 -0.054716951711
          -0.044102191248 -0.021578082776 -0.011671557593 -2.4180924277 -1.3693719075 -0.15521436338
          -0.13185611906 -0.06093684246 -1.3693719075 -0.59672341301 -0.1377874046 -0.12653001182
          -0.05360602502 -0.15521436338 -0.1377874046 -0.13779086866 -0.075530541384 -0.034378681054
          -0.13185611906 -0.12653001182 -0.075530541384 -0.04440944844 -0.028162815948 -0.06093684246
          -0.05360602502 -0.034378681054 -0.028162815948 -0.018941623404 0.32593660851 -1.2567231928
          -0.19130791105 0.0015774171561 0.0057242807793 -1.2567231928 -0.61167584055 0.043544123801
          -0.085281674496 -0.070696152661 -0.19130791105 0.043544123801 -0.058763564787 -0.061571121384
          -0.041090639147 0.0015774171561 -0.085281674496 -0.061571121384 -0.03355887441 -0.022803845596
          0.0057242807793 -0.070696152661 -0.041090639147 -0.022803845596 -0.015283240995
        </DataArray>
        <DataArray type="Float64" Name="q_y" format="ascii" RangeMin="-7.2970703946" RangeMax="12.530277258">
          12.530277258 -0.61891987601 1.3394308136 -0.70031314693 -0.48665778025 -1.4251656954
          -4.3393335602 -3.1537740224 0.11598472393 -0.10109391846 -7.2970703946 -5.8744446104
          -1.9466822099 0.11163780132 -0.026262188607 -2.4180924277 -1.3693719075 -0.15521436338
          -0.13185611906 -0.06093684246 0.32593660851 -1.2567231928 -0.19130791105 0.0015774171561
          0.0057242807793 -0.61891987601 1.5579115621 -0.32011932417 -0.068062885118 -0.055632135796
          -4.3393335602 -4.9067604872 -2.0765429458 0.18656823567 0.0013991242989 -5.8744446104
          -4.177626599 -0.94339814364 -0.030970570948 -0.054716951711 -1.3693719075 -0.59672341301
          -0.1377874046 -0.12653001182 -0.05360602502 -1.2567231928 -0.61167584055 0.043544123801
          -0.085281674496 -0.070696152661 1.3394308136 -0.32011932417 -0.35731517646 0.10472049037
          0.056829974355 -3.1537740224 -2.0765429458 -0.2801912956 -0.03088654316 -0.035037031464
          -1.9466822099 -0.94339814364 -0.17139949002 -0.099473833388 -0.044102191248 -0.15521436338
          -0.1377874046 -0.13779086866 -0.075530541384 -0.034378681054 -0.19130791105 0.043544123801
          -0.058763564787 -0.061571121384 -0.041090639147 -0.70031314693 -0.068062885118 0.10472049037
          -0.027546141049 -0.015154230551 0.11598472393 0.18656823567 -0.03088654316 -0.044371820048
          -0.013274499304 0.11163780132 -0.030970570948 -0.099473833388 -0.043062478354 -0.021578082776
          -0.13185611906 -0.12653001182 -0.075530541384 -0.04440944844 -0.028162815948 0.0015774171561
          -0.085281674496 -0.061571121384 -0.03355887441 -0.022803845596 -0.48665778025 -0.055632135796
          0.056829974355 -0.015154230551 -0.022924038526 -0.10109391846 0.0013991242989 -0.035037031464
          -0.013274499304 -0.011367460615 -0.026262188607 -0.054716951711 -0.044102191248 -0.021578082776
          -0.011671557593 -0.06093684246 -0.05360602502 -0.034378681054 -0.028162815948 -0.018941623404
          0.0057242807793 -0.070696152661 -0.041090639147 -0.022803845596 -0.015283240995
        </DataArray>
        <DataArray type="Float64" Name="q_z" format="ascii" RangeMin="-7.2970703946" RangeMax="12.530277258">
          12.530277258 -1.4251656954 -7.2970703946 -2.4180924277 0.32593660851 -0.61891987601
          -4.3393335602 -5.8744446104 -1.3693719075 -1.2567231928 1.3394308136 -3.1537740224
          -1.9466822099 -0.15521436338 -0.19130791105 -0.70031314693 0.11598472393 0.11163780132
          -0.13185611906 0.0015774171561 -0.48665778025 -0.10109391846 -0.026262188607 -0.06093684246
          0.0057242807793 -0.61891987601 -4.3393335602 -5.8744446104 -1.3693719075 -1.2567231928
          1.5579115621 -4.9067604872 -4.177626599 -0.59672341301 -0.61167584055 -0.32011932417
          -2.0765429458 -0.94339814364 -0.1377874046 0.043544123801 -0.068062885118 0.18656823567
          -0.030970570948 -0.12653001182 -0.085281674496 -0.055632135796 0.0013991242989 -0.054716951711
          -0.05360602502 -0.070696152661 1.3394308136 -3.1537740224 -1.9466822099 -0.15521436338
          -0.19130791105 -0.32011932417 -2.0765429458 -0.94339814364 -0.1377874046 0.043544123801
          -0.35731517646 -0.2801912956 -0.17139949002 -0.13779086866 -0.058763564787 0.10472049037
          -0.03088654316 -0.099473833388 -0.075530541384 -0.061571121384 0.056829974355 -0.035037031464
          -0.044102191248 -0.034378681054 -0.041090639147 -0.70031314693 0.11598472393 0.11163780132
          -0.13185611906 0.0015774171561 -0.068062885118 0.18656823567 -0.030970570948 -0.12653001182
          -0.085281674496 0.10472049037 -0.03088654316 -0.099473833388 -0.075530541384 -0.061571121384
          -0.027546141049 -0.044371820048 -0.043062478354 -0.04440944844 -0.03355887441 -0.015154230551
          -0.013274499304 -0.021578082776 -0.028162815948 -0.022803845596 -0.48665778025 -0.10109391846
          -0.026262188607 -0.06093684246 0.0057242807793 -0.055632135796 0.0013991242989 -0.054716951711
          -0.05360602502 -0.070696152661 0.056829974355 -0.035037031464 -0.044102191248 -0.034378681054
          -0.041090639147 -0.015154230551 -0.013274499304 -0.021578082776 -0.028162815948 -0.022803845596
          -0.022924038526 -0.011367460615 -0.011671557593 -0.018941623404 -0.015283240995
        </DataArray>
        <DataArray type="Float64" Name="u" format="ascii" RangeMin="-2.8496744243" RangeMax="0.18803001332">
          -1.4711276743 -2.8496744243 -1.2637659675 0.12693060633 0.078714554504 -2.8496744243
          -2.3848440509 -0.81658905885 0.1748667697 0.14262339417 -1.2637659675 -0.81658905885
          -0.043147496842 0.12022854396 0.14868227198 0.12693060633 0.1748667697 0.12022854396
          0.1339945564 0.16259863745 0.078714554504 0.14262339417 0.14868227198 0.16259863745
          0.17281720714 -2.8496744243 -2.3848440509 -0.81658905885 0.1748667697 0.14262339417
          -2.3848440509 -1.7743313165 -0.38107667844 0.13624640189 0.14202600392 -0.81658905885
          -0.38107667844 0.041084387559 0.11109327233 0.14899554052 0.1748667697 0.13624640189
          0.11109327233 0.14410797701 0.1658077921 0.14262339417 0.14202600392 0.14899554052
          0.1658077921 0.17693611893 -1.2637659675 -0.81658905885 -0.043147496842 0.12022854396
          0.14868227198 -0.81658905885 -0.38107667844 0.041084387559 0.11109327233 0.14899554052
          -0.043147496842 0.041084387559 0.094968905664 0.13148308158 0.16102567234 0.12022854396
          0.11109327233 0.13148308158 0.15504702763 0.16987234427 0.14868227198 0.14899554052
          0.16102567234 0.16987234427 0.17924222963 0.12693060633 0.1748667697 0.12022854396
          0.1339945564 0.16259863745 0.1748667697 0.13624640189 0.11109327233 0.14410797701
          0.1658077921 0.12022854396 0.11109327233 0.13148308158 0.15504702763 0.16987234427
          0.1339945564 0.14410797701 0.15504702763 0.16580523567 0.17648940535 0.16259863745
          0.1658077921 0.16987234427 0.17648940535 0.18320727078 0.078714554504 0.14262339417
          0.14868227198 0.16259863745 0.17281720714 0.14262339417 0.14202600392 0.14899554052
          0.1658077921 0.17693611893 0.14868227198 0.14899554052 0.16102567234 0.16987234427
          0.17924222963 0.16259863745 0.1658077921 0.16987234427 0.17648940535 0.18320727078
          0.17281720714 0.17693611893 0.17924222963 0.18320727078 0.18803001332
        </DataArray>
      </PointData>
      <CellData>
        <DataArray type="Float64" Name="a(e,e)^0.5, e=u-u^h" format="ascii" RangeMin="0.0061608983034" RangeMax="1.3338651107">
          0.12905306718 1.3338651107 0.61379727879 0.045735902583 1.3338651107 1.3269407252
          0.16741654761 0.032306849106 0.61379727879 0.16741654761 0.04647801876 0.019461968656
          0.045735902583 0.032306849106 0.019461968656 0.011669748774 1.3338651107 1.3269407252
          0.16741654761 0.032306849106 1.3269407252 0.65645623476 0.077210233158 0.0244874088
          0.16741654761 0.077210233158 0.032540557834 0.016028715553 0.032306849106 0.0244874088
          0.016028715553 0.010222817461 0.61379727879 0.16741654761 0.04647801876 0.019461968656
          0.16741654761 0.077210233158 0.032540557834 0.016028715553 0.04647801876 0.032540557834
          0.019498617649 0.011674656609 0.019461968656 0.016028715553 0.011674656609 0.0081347021848
          0.045735902583 0.032306849106 0.019461968656 0.011669748774 0.032306849106 0.0244874088
          0.016028715553 0.010222817461 0.019461968656 0.016028715553 0.011674656609 0.0081347021848
          0.011669748774 0.010222817461 0.0081347021848 0.0061608983034
        </DataArray>
        <DataArray type="Float64" Name="a(u,u)^0.5" format="ascii" RangeMin="-0.62639837528" RangeMax="1.7313572849">
          0.77887653975 1.7313572849 -0.62639837528 0.058420523275 1.7313572849 0.71376638683
          -0.14288195895 0.048318133262 -0.62639837528 -0.14288195895 0.036018623246 0.037598368551
          0.058420523275 0.048318133262 0.037598368551 0.037321980199 1.7313572849 0.71376638683
          -0.14288195895 0.048318133262 0.71376638683 -0.41096529613 0.02430177159 0.041965921165
          -0.14288195895 0.02430177159 0.031506271085 0.034048699684 0.048318133262 0.041965921165
          0.034048699684 0.034792731342 -0.62639837528 -0.14288195895 0.036018623246 0.037598368551
          -0.14288195895 0.02430177159 0.031506271085 0.034048699684 0.036018623246 0.031506271085
          0.023112931888 0.028640847113 0.037598368551 0.034048699684 0.028640847113 0.030790744798
          0.058420523275 0.048318133262 0.037598368551 0.037321980199 0.048318133262 0.041965921165
          0.034048699684 0.034792731342 0.037598368551 0.034048699684 0.028640847113 0.030790744798
          0.037321980199 0.034792731342 0.030790744798 0.031592466923
        </DataArray>
        <DataArray type="Float64" Name="a(u^h,u^h)^0.5" format="ascii" RangeMin="0.0061891795926" RangeMax="1.0943426308">
          0.35545973616 1.0943426308 0.8064356254 0.12548872775 1.0943426308 0.99957263176
          0.31109039447 0.048524132965 0.8064356254 0.31109039447 0.048994219264 0.021345857694
          0.12548872775 0.048524132965 0.021345857694 0.012202887849 1.0943426308 0.99957263176
          0.31109039447 0.048524132965 0.99957263176 0.54794407144 0.10104691392 0.028457964702
          0.31109039447 0.10104691392 0.036919246452 0.016771682573 0.048524132965 0.028457964702
          0.016771682573 0.01048423481 0.8064356254 0.31109039447 0.048994219264 0.021345857694
          0.31109039447 0.10104691392 0.036919246452 0.016771682573 0.048994219264 0.036919246452
          0.020525720677 0.012032342833 0.021345857694 0.016771682573 0.012032342833 0.0081904321315
          0.12548872775 0.048524132965 0.021345857694 0.012202887849 0.048524132965 0.028457964702
          0.016771682573 0.01048423481 0.021345857694 0.016771682573 0.012032342833 0.0081904321315
          0.012202887849 0.01048423481 0.0081904321315 0.0061891795926
        </DataArray>
      </CellData>
      <Points>
        <DataArray type="Float64" Name="Points" NumberOfComponents="3" format="ascii" RangeMin="0" RangeMax="1.7320508076">
          0 0 0 0 0 0.25
          0 0 0.5 0 0 0.75
          0 0 1 0 0.25 0
          0 0.25 0.25 0 0.25 0.5
          0 0.25 0.75 0 0.25 1
          0 0.5 0 0 0.5 0.25
          0 0.5 0.5 0 0.5 0.75
          0 0.5 1 0 0.75 0
          0 0.75 0.25 0 0.75 0.5
          0 0.75 0.75 0 0.75 1
          0 1 0 0 1 0.25
          0 1 0.5 0 1 0.75
          0 1 1 0.25 0 0
          0.25 0 0.25 0.25 0 0.5
          0.25 0 0.75 0.25 0 1
          0.25 0.25 0 0.25 0.25 0.25
          0.25 0.25 0.5 0.25 0.25 0.75
          0.25 0.25 1 0.25 0.5 0
          0.25 0.5 0.25 0.25 0.5 0.5
          0.25 0.5 0.75 0.25 0.5 1
          0.25 0.75 0 0.25 0.75 0.25
          0.25 0.75 0.5 0.25 0.75 0.75
          0.25 0.75 1 0.25 1 0
          0.25 1 0.25 0.25 1 0.5
          0.25 1 0.75 0.25 1 1
          0.5 0 0 0.5 0 0.25
          0.5 0 0.5 0.5 0 0.75
          0.5 0 1 0.5 0.25 0
          0.5 0.25 0.25 0.5 0.25 0.5
          0.5 0.25 0.75 0.5 0.25 1
          0.5 0.5 0 0.5 0.5 0.25
          0.5 0.5 0.5 0.5 0.5 0.75
          0.5 0.5 1 0.5 0.75 0
          0.5 0.75 0.25 0.5 0.75 0.5
          0.5 0.75 0.75 0.5 0.75 1
          0.5 1 0 0.5 1 0.25
          0.5 1 0.5 0.5 1 0.75
          0.5 1 1 0.75 0 0
          0.75 0 0.25 0.75 0 0.5
          0.75 0 0.75 0.75 0 1
          0.75 0.25 0 0.75 0.25 0.25
          0.75 0.25 0.5 0.75 0.25 0.75
          0.75 0.25 1 0.75 0.5 0
          0.75 0.5 0.25 0.75 0.5 0.5
          0.75 0.5 0.75 0.75 0.5 1
          0.75 0.75 0 0.75 0.75 0.25
          0.75 0.75 0.5 0.75 0.75 0.75
          0.75 0.75 1 0.75 1 0
          0.75 1 0.25 0.75 1 0.5
          0.75 1 0.75 0.75 1 1
          1 0 0 1 0 0.25
          1 0 0.5 1 0 0.75
          1 0 1 1 0.25 0
          1 0.25 0.25 1 0.25 0.5
          1 0.25 0.75 1 0.25 1
          1 0.5 0 1 0.5 0.25
          1 0.5 0.5 1 0.5 0.75
          1 0.5 1 1 0.75 0
          1 0.75 0.25 1 0.75 0.5
          1 0.75 0.75 1 0.75 1
          1 1 0 1 1 0.25
          1 1 0.5 1 1 0.75
          1 1 1
        </DataArray>
      </Points>
      <Cells>
        <DataArray type="Int64" Name="connectivity" format="ascii" RangeMin="0" RangeMax="124">
          0 25 30 5 1 26
          31 6 1 26 31 6
          2 27 32 7 2 27
          32 7 3 28 33 8
          3 28 33 8 4 29
          34 9 5 30 35 10
          6 31 36 11 6 31
          36 11 7 32 37 12
          7 32 37 12 8 33
          38 13 8 33 38 13
          9 34 39 14 10 35
          40 15 11 36 41 16
          11 36 41 16 12 37
          42 17 12 37 42 17
          13 38 43 18 13 38
          43 18 14 39 44 19
          15 40 45 20 16 41
          46 21 16 41 46 21
          17 42 47 22 17 42
          47 22 18 43 48 23
          18 43 48 23 19 44
          49 24 25 50 55 30
          26 51 56 31 26 51
          56 31 27 52 57 32
          27 52 57 32 28 53
          58 33 28 53 58 33
          29 54 59 34 30 55
          60 35 31 56 61 36
          31 56 61 36 32 57
          62 37 32 57 62 37
          33 58 63 38 33 58
          63 38 34 59 64 39
          35 60 65 40 36 61
          66 41 36 61 66 41
          37 62 67 42 37 62
          67 42 38 63 68 43
          38 63 68 43 39 64
          69 44 40 65 70 45
          41 66 71 46 41 66
          71 46 42 67 72 47
          42 67 72 47 43 68
          73 48 43 68 73 48
          44 69 74 49 50 75
          80 55 51 76 81 56
          51 76 81 56 52 77
          82 57 52 77 82 57
          53 78 83 58 53 78
          83 58 54 79 84 59
          55 80 85 60 56 81
          86 61 56 81 86 61
          57 82 87 62 57 82
          87 62 58 83 88 63
          58 83 88 63 59 84
          89 64 60 85 90 65
          61 86 91 66 61 86
          91 66 62 87 92 67
          62 87 92 67 63 88
          93 68 63 88 93 68
          64 89 94 69 65 90
          95 70 66 91 96 71
          66 91 96 71 67 92
          97 72 67 92 97 72
          68 93 98 73 68 93
          98 73 69 94 99 74
          75 100 105 80 76 101
          106 81 76 101 106 81
          77 102 107 82 77 102
          107 82 78 103 108 83
          78 103 108 83 79 104
          109 84 80 105 110 85
          81 106 111 86 81 106
          111 86 82 107 112 87
          82 107 112 87 83 108
          113 88 83 108 113 88
          84 109 114 89 85 110
          115 90 86 111 116 91
          86 111 116 91 87 112
          117 92 87 112 117 92
          88 113 118 93 88 113
          118 93 89 114 119 94
          90 115 120 95 91 116
          121 96 91 116 121 96
          92 117 122 97 92 117
          122 97 93 118 123 98
          93 118 123 98 94 119
          124 99
        </DataArray>
        <DataArray type="Int64" Name="offsets" format="ascii" RangeMin="8" RangeMax="512">
          8 16 24 32 40 48
          56 64 72 80 88 96
          104 112 120 128 136 144
          152 160 168 176 184 192
          200 208 216 224 232 240
          248 256 264 272 280 288
          296 304 312 320 328 336
          344 352 360 368 376 384
          392 400 408 416 424 432
          440 448 456 464 472 480
          488 496 504 512
        </DataArray>
        <DataArray type="UInt8" Name="types" format="ascii" RangeMin="12" RangeMax="12">
          12 12 12 12 12 12
          12 12 12 12 12 12
          12 12 12 12 12 12
          12 12 12 12 12 12
          12 12 12 12 12 12
          12 12 12 12 12 12
          12 12 12 12 12 12
          12 12 12 12 12 12
          12 12 12 12 12 12
          12 12 12 12 12 12
          12 12 12 12
        </DataArray>
      </Cells>
    </Piece>
  </UnstructuredGrid>
</VTKFile>
