<?xml version="1.0"?>
<VTKFile type="UnstructuredGrid" version="0.1" byte_order="LittleEndian" header_type="UInt32" compressor="vtkZLibDataCompressor">
  <UnstructuredGrid>
    <Piece NumberOfPoints="60" NumberOfCells="24">
      <PointData>
        <DataArray type="Float64" Name="Continuous global L2-projection p-rec" format="ascii" RangeMin="-9.618236561890418" RangeMax="-1.784731547616478">
          -8.640794152071791 -6.257445718246289 -3.87409728442081 -9.090286937569168 -5.878278425617703 -2.6662699136662424
          -8.79752064922572 -6.028662746174402 -3.2598048431230877 -8.055173722137178 -6.558259486655738 -5.061345251174295
          -8.567370748219975 -6.129051696366899 -3.6907326445138344 -8.358232992859483 -5.909743084141189 -3.461253175422871
          -7.894521438059676 -5.459201132229678 -3.0238808263996844 -7.6398084881521395 -5.227832594007436 -2.815856699862716
          -8.013004936098342 -5.301134698168796 -2.589264460239267 -7.656340120000613 -5.626682698780266 -3.597025277559938
          -7.612966905561237 -5.5629191983404676 -3.512871491119674 -7.926245491794338 -5.17358856315105 -2.4209316345077987
          -7.132178148622068 -4.458454848119275 -1.784731547616478 -7.533656530041097 -5.129625047378775 -2.725593564716431
          -8.430552146166692 -6.167036260966566 -3.903520375766455 -8.926238521125645 -6.533588581438941 -4.1409386417522045
          -6.55982500680667 -4.205334489143775 -1.8508439714808858 -7.659292852290787 -4.823349066030037 -1.987405279769294
          -9.188269222375007 -6.443777223109859 -3.6992852238447265 -9.618236561890418 -7.446677061052223 -5.275117560214037
        </DataArray>
        <DataArray type="Float64" Name="Continuous global L2-projection sigma_xx" format="ascii" RangeMin="1.7847315476164785" RangeMax="9.618236561890415">
          8.640794152071791 6.257445718246303 3.8740972844207993 9.090286937569163 5.878278425617703 2.6662699136662504
          8.797520649225717 6.028662746174408 3.2598048431230833 8.055173722137184 6.558259486655732 5.061345251174297
          8.567370748219961 6.1290516963669015 3.6907326445138318 8.207382570179119 5.603349997230926 2.9993174242827605
          7.724866323647372 5.168506150416251 2.612145977185127 7.639808488152144 5.2278325940074275 2.815856699862724
          8.013004936098339 5.301134698168796 2.589264460239269 7.252646265191798 5.016599565798028 2.780552866404229
          7.194829385009565 4.966040431326907 2.7372514776442607 7.926245491794324 5.173588563151073 2.420931634507782
          7.13217814862207 4.4584548481192705 1.7847315476164785 7.2421937211936624 4.723606969051589 2.2050202169095057
          8.227714351147531 5.724132444266595 3.2205505373856345 8.926238521125669 6.533588581438915 4.140938641752219
          6.559825006806661 4.205334489143782 1.8508439714808884 7.6592928522907995 4.823349066030034 1.9874052797692918
          9.188269222374995 6.443777223109867 3.699285223844722 9.618236561890415 7.446677061052234 5.275117560214031
        </DataArray>
        <DataArray type="Float64" Name="Continuous global L2-projection sigma_xy" format="ascii" RangeMin="-2.21242900218015" RangeMax="2.133198843608233">
          -1.0746667674379481e-16 2.600222630342336e-16 -4.390091382970623e-16 2.0900114195565476e-17 3.455540620935457e-17 2.1214025183640896e-16
          6.698341856101705e-17 -3.6363993054893034e-17 4.7864761430359114e-17 -3.811763854978e-17 5.5189430681618397e-17 -8.406946121570886e-17
          1.6791623306256276e-16 -0.36052185419355887 -1.1219949496963684 -3.504750768622854e-17 -0.19118842837058372 -0.5138237099233982
          -1.335729995416714e-16 0.18023388482319616 0.5609133154718924 6.662789461542951e-17 0.38243422852551273 1.027801607960212
          1.1102230246251568e-16 -0.8474567236573617 -2.21242900218015 -3.790331177874419e-16 -0.4315054937648422 -1.0664394133439772
          -3.752130780968122e-17 0.4236647952062847 1.1060485496791854 -4.440892098500626e-16 0.8631404736096913 2.133198843608233
          -1.361361199108745e-16 -0.6215142679929205 -1.4175953606876581 -1.7644327680948366e-16 -0.24053538905787364 -0.8193374970341339
          -7.3898215012296e-17 0.3107105150226716 0.7086913483666457 -1.1893600833912998e-16 0.4811429579259278 1.6389208606962142
          -1.7898838108118135e-16 -2.2770265776916594e-16 -1.2269846257281448e-16 -1.2097579379356115e-17 -1.3671363092841838e-16 3.7492294468523064e-16
          -2.0770944590888474e-16 6.549716251002593e-17 2.512418685459496e-16 -2.1045367315887717e-17 -3.6581548864255997e-16 -5.623199523390247e-17
        </DataArray>
        <DataArray type="Float64" Name="Continuous global L2-projection sigma_xz" format="ascii" RangeMin="-0.9241821021068212" RangeMax="3.110903562999032">
          1.0002807766537662 1.0002807766537631 1.0002807766537651 1.0002807766537631 0.4155236623071371 -0.9241821021068212
          1.000280776653766 0.39616252699208415 -0.8167245567574929 1.0002807766537631 1.0002807766537654 1.0002807766537645
          0.9999202748617908 0.999920274861791 0.99992027486179 0.999920274861791 0.3528526969308892 -0.642951314891218
          0.99992027486179 0.32611858404998634 -0.5764931775013951 0.999920274861792 0.9999202748617897 0.999920274861792
          0.999885965811677 0.9998859658116772 0.9998859658116794 0.9998859658116773 0.8516705219735765 0.7801658332486817
          0.9998859658116763 0.9210460967541765 0.6449849534063785 0.9998859658116779 0.9998859658116771 0.9998859658116782
          1.0000626108246462 1.000062610824646 1.0000626108246438 1.0000626108246469 1.509956429748377 2.2946570202356567
          1.0000626108246458 1.5310230994090201 2.2422875388584322 1.0000626108246464 1.0000626108246469 1.0000626108246464
          1.0000826677179617 1.000082667717958 1.0000826677179613 1.0000826677179584 1.7618080663884579 2.8571990418447277
          1.0000826677179604 1.6069748219277975 3.110903562999032 1.0000826677179582 1.000082667717961 1.0000826677179597
        </DataArray>
        <DataArray type="Float64" Name="Continuous global L2-projection sigma_yx" format="ascii" RangeMin="-0.05546071194112302" RangeMax="0.07218316942453383">
          3.2803523122472596e-18 -3.124852224042853e-18 3.167604469092896e-18 -2.9950597403141196e-18 2.3710211971814186e-18 -2.661143836756841e-18
          -3.5305737224690576e-18 4.6259358853161345e-18 -7.555695279349687e-18 -2.3292675509854956e-19 -2.632274794892973e-18 3.4581755392003406e-18
          -4.872569262976153e-18 5.547232699388233e-18 -7.34633519648712e-18 -0.011045528226532039 -0.003239373443648222 0.004566781339235611
          -0.010900557972490779 0.007787680253386486 0.0264759184792638 5.430383896428207e-19 4.509625307557069e-18 -6.500332028525044e-18
          2.2665280853785898e-17 -1.575090891412977e-17 1.082054529743489e-17 0.010729938745498638 0.041456554085016264 0.07218316942453383
          0.024854393675923344 -0.015303159132599829 -0.05546071194112302 -2.0078757159936915e-18 -1.6185117224493741e-18 3.9989261204716065e-18
          2.7274328837209638e-18 -2.0344753882693823e-17 1.4958412406963597e-17 0.04234802722930908 0.0184658616781235 -0.0054163038730621485
          0.04646071791648867 0.013569928705692274 -0.01932086050510406 -3.0972918838315116e-18 6.194583767663022e-18 -3.216482831317816e-18
          -5.34404583736936e-18 1.0283852314657636e-17 -8.080930067212748e-18 7.143407930264694e-18 -1.767040726086019e-17 8.626133377598668e-18
          -2.2506394802322566e-17 1.62421748862211e-17 -1.2592825465582814e-17 8.499228231706435e-18 -8.684681270119676e-18 6.764287180357023e-18
        </DataArray>
        <DataArray type="Float64" Name="Continuous global L2-projection sigma_yy" format="ascii" RangeMin="1.850843971480888" RangeMax="9.618236561890429">
          8.64079415207179 6.257445718246296 3.8740972844207993 9.090286937569171 5.8782784256177 2.6662699136662504
          8.797520649225717 6.028662746174411 3.2598048431230855 8.055173722137184 6.558259486655735 5.0613452511743
          8.567370748219973 6.111588221747629 3.6658378455987624 8.358232992859481 5.906670587959537 3.4818854960486396
          7.894521438059686 5.46793155962687 3.036326358530852 7.6398084881521315 5.233978508364767 2.7745858672686503
          8.013004936098337 5.344591227369094 2.80663434937363 7.656340120000609 5.634153727718645 3.5354318068790653
          7.6129669055612466 5.54119419335783 3.4042028511840856 7.926245491794333 5.158644263369473 2.544137058825566
          7.1321781486220726 4.519694203469244 1.8570920022176294 7.533656530041102 5.161904689287246 2.7470820343131965
          8.430552146166677 6.136421176775679 3.8673455761290976 8.92623852112565 6.469019611153675 4.097955254303144
          6.559825006806666 4.2053344891437785 1.850843971480888 7.659292852290781 4.8233490660300395 1.9874052797692874
          9.188269222375007 6.443777223109866 3.6992852238447247 9.618236561890429 7.446677061052216 5.275117560214037
        </DataArray>
        <DataArray type="Float64" Name="Continuous global L2-projection sigma_yz" format="ascii" RangeMin="-0.11434884893142787" RangeMax="0.14408141679278805">
          5.112741429204074e-18 8.366345160297341e-18 2.7557213237585577e-18 -1.244593258937419e-18 -0.05228645336296509 -0.10107201367820833
          -3.964997256727702e-18 -0.0251830763855756 0.10868429039738466 9.184951721462103e-18 -1.26701827102197e-17 1.3273985259017078e-17
          -5.497257630024377e-18 6.796609433484682e-18 9.79511359531616e-18 2.190469230389284e-18 0.0289023636364964 0.14408141679278805
          4.7704642693454065e-18 0.008503290843589239 -0.07778200530034346 -5.953494300745558e-18 1.4301474098542755e-17 -3.234297996049357e-17
          2.932483545270145e-17 -4.3173833255872284e-17 6.212689097729415e-17 -3.876475068280656e-17 0.053902464916743636 0.05227024509889714
          -9.380326952420304e-18 0.050934437738774284 0.016314823425826113 1.7698648190522706e-17 -3.770108971645476e-17 4.0470160680989153e-17
          -8.674154591018939e-18 1.9475436055645288e-17 7.279296961036665e-18 2.4506010667983843e-18 -0.02277526656127611 -0.1135371734731887
          2.1361202776991814e-17 -0.00670065320769321 0.06129276922351605 -1.7551320675045233e-17 3.758047485715566e-17 -6.004101285126591e-17
          1.9296715551661876e-17 -3.700743415417189e-17 4.2789845740761244e-17 -2.2402678660873545e-17 -0.09466680016383335 -0.057133126512402196
          -3.964997256727703e-17 -0.1061269083663451 -0.11434884893142787 2.887975893626333e-17 -5.9742908728693e-17 2.2932560460439275e-17
        </DataArray>
        <DataArray type="Float64" Name="Continuous global L2-projection sigma_zx" format="ascii" RangeMin="-0.07805288769304755" RangeMax="0.06889505498111248">
          1.5693602850752753e-17 -2.7455626069544646e-18 5.811296348479056e-18 -1.8706786082979633e-18 -7.571756859120763e-18 1.8477422434639634e-18
          -3.9668211661760265e-18 5.962317363296351e-18 -1.007426037246625e-17 7.127808822327728e-19 -2.6212713512661293e-18 3.1477716907331158e-18
          -2.6586736901572438e-17 2.798603884376046e-18 -9.79511359531616e-18 -0.04940311424434183 0.00974597036838532 0.06889505498111248
          -0.045448965393006795 -0.0040199924260377945 0.03740898054093124 -2.487754480303143e-18 5.0014444133211355e-18 -6.020786449949823e-18
          2.6115699238338563e-17 -8.655658044359707e-18 1.0352041255674305e-17 -0.07805288769304755 -0.019604943692684146 0.038843000307679156
          -0.01555671915411949 0.001469083130359647 0.018494885414838794 1.807083883477798e-18 -2.0745593132690493e-18 -2.1345511387550358e-19
          -3.5122190361109224e-19 1.7719458796081495e-17 -2.1622490639685236e-17 -0.01746259443461895 -0.020486399531364476 -0.023510204628109897
          0.034827516414225115 -0.012792715802788738 -0.06041294801980257 -3.716750260597812e-18 2.4778335070652084e-18 -4.288643775090422e-18
          6.16083689778383e-18 -1.1656256445514079e-17 1.3203325278101906e-17 -9.43997416988936e-18 2.1348780362533924e-17 -2.133564043019625e-17
          -8.011070865022367e-18 1.4391800532094646e-18 -5.037130186233125e-18 1.0741118941904972e-18 -1.919888560770592e-18 5.968702935386805e-18
        </DataArray>
        <DataArray type="Float64" Name="Continuous global L2-projection sigma_zy" format="ascii" RangeMin="-0.13465136816424025" RangeMax="0.06731558405879579">
          2.906222055762575e-17 -4.549632727444729e-17 3.881561038247319e-17 2.8775697736193504e-18 2.1365533873539557e-19 7.656918787599766e-18
          -7.136893726608403e-18 2.3784477411448474e-18 -9.279746863565688e-18 2.091568162307227e-17 -2.8944799486201334e-17 1.6782937763620492e-17
          -6.296858739846103e-17 -0.05227165238300765 0.05160805455873403 1.0952346151946419e-17 -0.029060445006421062 -0.015493602095636771
          0 0.026131905363104873 -0.02580015622657445 -1.665697365385738e-17 0.05812961046521522 0.03099185350821046
          9.714451465470121e-17 -0.13465136816424025 -0.09587403664290385 -5.2763132873820034e-17 0.005710294092052534 0.015285930909211693
          3.752130780968122e-17 0.06731558405879579 0.04792982693513726 -6.938893903907228e-18 -0.011422301727984025 -0.030576448817433415
          -2.97797762305038e-17 -0.05570448540739613 -0.0829924026104847 0 0.02828327426485159 -0.018411233225010804
          -1.5010574924372627e-17 0.027848064382975893 0.04148997615347795 9.91133402826083e-18 -0.0565750357688397 0.0368279912891091
          1.9987350042285895e-17 -2.0460118459755354e-17 3.283324764991785e-17 5.021810215537128e-19 -5.339055773204156e-18 -7.842379433942132e-18
          4.177473616650105e-18 -1.5234238310559358e-17 2.2798967628275393e-17 -3.245219125642926e-18 1.6868977693822653e-17 -1.7760136559385994e-17
        </DataArray>
        <DataArray type="Float64" Name="Continuous global L2-projection sigma_zz" format="ascii" RangeMin="1.7847315476164805" RangeMax="9.618236561890415">
          8.640794152071779 6.257445718246298 3.874097284420801 9.09028693756917 5.78911570571145 2.786691625402436
          8.797520649225723 5.892371454445083 3.213337652574378 8.055173722137177 6.558259486655739 5.061345251174293
          8.567370748219963 6.129051696366908 3.690732644513828 8.358232992859506 5.822015475224225 3.3950967684085107
          7.894521438059671 5.448231844375267 3.0447607627835827 7.639808488152149 5.227832594007433 2.8158566998627226
          8.013004936098342 5.301134698168792 2.589264460239269 7.656340120000598 5.642759015387705 3.521452177031721
          7.612966905561244 5.62751905604655 3.4901173708404025 7.926245491794328 5.17358856315105 2.4209316345077943
          7.1321781486220726 4.458454848119267 1.7847315476164805 7.533656530041096 5.198755022456095 2.7777252804279513
          8.430552146166688 6.175680137225742 3.887066838508848 8.92623852112566 6.533588581438933 4.140938641752211
          6.559825006806658 4.205334489143779 1.8508439714808875 7.659292852290795 4.845749331117107 2.087704280786608
          9.188269222374998 6.380998627307287 3.7864204275329794 9.618236561890415 7.446677061052216 5.275117560214044
        </DataArray>
        <DataArray type="Float64" Name="Continuous global L2-projection u_x,x" format="ascii" RangeMin="-0.8164724111557001" RangeMax="7.610269280837205e-16">
          -5.2136244811246564e-17 1.5104673191575734e-16 -2.9038647009704465e-16 6.193479610739473e-17 -1.896625011856889e-16 4.412907320242897e-16
          -1.3921753578866891e-16 3.2895544073359184e-16 -3.2237633191891997e-16 6.05220956663132e-17 -1.7809132459228213e-16 1.3753541495857092e-16
          1.7911064860006705e-16 -4.25387790425159e-16 5.48526361337705e-16 -0.15085042268037824 -0.30639308691024714 -0.4619357511401185
          -0.16965511441230727 -0.2906949818134316 -0.4117348492145532 -2.1938228165470353e-16 4.745828850568354e-16 -2.596390631480402e-16
          -1.4524381896335078e-16 3.555030206694322e-16 -5.045520641289467e-16 -0.40369385480880704 -0.6100831329822546 -0.8164724111557001
          -0.41813752055168135 -0.5968787670135497 -0.7756200134754189 1.3046124999466072e-16 -6.283603682949303e-17 2.376796594747461e-16
          3.5261856835109686e-16 -6.371690767467564e-16 7.610269280837205e-16 -0.2914628088474273 -0.4060180783271778 -0.520573347806932
          -0.20283779501915 -0.44290381669998174 -0.6829698383808132 1.3215112037681106e-16 5.2860448150724437e-17 -3.4309150200723374e-16
          -2.1600944372031485e-16 2.3737722495586997e-16 -2.490752140793169e-16 2.461241144868806e-16 -4.763442957315968e-16 4.450810199770249e-16
          -1.734400694332997e-16 -2.286240313098464e-16 -4.43267456388515e-16 2.5132078441870217e-16 -2.2081516231539572e-16 1.5159722138560102e-17
        </DataArray>
        <DataArray type="Float64" Name="Continuous global L2-projection u_x,y" format="ascii" RangeMin="-2.21242900218015" RangeMax="2.133198843608233">
          -1.0746667674379481e-16 2.600222630342336e-16 -4.390091382970623e-16 2.0900114195565476e-17 3.455540620935457e-17 2.1214025183640896e-16
          6.698341856101705e-17 -3.6363993054893034e-17 4.7864761430359114e-17 -3.811763854978e-17 5.5189430681618397e-17 -8.406946121570886e-17
          1.6791623306256276e-16 -0.36052185419355887 -1.1219949496963684 -3.504750768622854e-17 -0.19118842837058372 -0.5138237099233982
          -1.335729995416714e-16 0.18023388482319616 0.5609133154718924 6.662789461542951e-17 0.38243422852551273 1.027801607960212
          1.1102230246251568e-16 -0.8474567236573617 -2.21242900218015 -3.790331177874419e-16 -0.4315054937648422 -1.0664394133439772
          -3.752130780968122e-17 0.4236647952062847 1.1060485496791854 -4.440892098500626e-16 0.8631404736096913 2.133198843608233
          -1.361361199108745e-16 -0.6215142679929205 -1.4175953606876581 -1.7644327680948366e-16 -0.24053538905787364 -0.8193374970341339
          -7.3898215012296e-17 0.3107105150226716 0.7086913483666457 -1.1893600833912998e-16 0.4811429579259278 1.6389208606962142
          -1.7898838108118135e-16 -2.2770265776916594e-16 -1.2269846257281448e-16 -1.2097579379356115e-17 -1.3671363092841838e-16 3.7492294468523064e-16
          -2.0770944590888474e-16 6.549716251002593e-17 2.512418685459496e-16 -2.1045367315887717e-17 -3.6581548864255997e-16 -5.623199523390247e-17
        </DataArray>
        <DataArray type="Float64" Name="Continuous global L2-projection u_x,z" format="ascii" RangeMin="-0.9241821021068212" RangeMax="3.110903562999032">
          1.0002807766537662 1.0002807766537631 1.0002807766537651 1.0002807766537631 0.4155236623071371 -0.9241821021068212
          1.000280776653766 0.39616252699208415 -0.8167245567574929 1.0002807766537631 1.0002807766537654 1.0002807766537645
          0.9999202748617908 0.999920274861791 0.99992027486179 0.999920274861791 0.3528526969308892 -0.642951314891218
          0.99992027486179 0.32611858404998634 -0.5764931775013951 0.999920274861792 0.9999202748617897 0.999920274861792
          0.999885965811677 0.9998859658116772 0.9998859658116794 0.9998859658116773 0.8516705219735765 0.7801658332486817
          0.9998859658116763 0.9210460967541765 0.6449849534063785 0.9998859658116779 0.9998859658116771 0.9998859658116782
          1.0000626108246462 1.000062610824646 1.0000626108246438 1.0000626108246469 1.509956429748377 2.2946570202356567
          1.0000626108246458 1.5310230994090201 2.2422875388584322 1.0000626108246464 1.0000626108246469 1.0000626108246464
          1.0000826677179617 1.000082667717958 1.0000826677179613 1.0000826677179584 1.7618080663884579 2.8571990418447277
          1.0000826677179604 1.6069748219277975 3.110903562999032 1.0000826677179582 1.000082667717961 1.0000826677179597
        </DataArray>
        <DataArray type="Float64" Name="Continuous global L2-projection u_y,x" format="ascii" RangeMin="-0.05546071194112302" RangeMax="0.07218316942453383">
          3.2803523122472596e-18 -3.124852224042853e-18 3.167604469092896e-18 -2.9950597403141196e-18 2.3710211971814186e-18 -2.661143836756841e-18
          -3.5305737224690576e-18 4.6259358853161345e-18 -7.555695279349687e-18 -2.3292675509854956e-19 -2.632274794892973e-18 3.4581755392003406e-18
          -4.872569262976153e-18 5.547232699388233e-18 -7.34633519648712e-18 -0.011045528226532039 -0.003239373443648222 0.004566781339235611
          -0.010900557972490779 0.007787680253386486 0.0264759184792638 5.430383896428207e-19 4.509625307557069e-18 -6.500332028525044e-18
          2.2665280853785898e-17 -1.575090891412977e-17 1.082054529743489e-17 0.010729938745498638 0.041456554085016264 0.07218316942453383
          0.024854393675923344 -0.015303159132599829 -0.05546071194112302 -2.0078757159936915e-18 -1.6185117224493741e-18 3.9989261204716065e-18
          2.7274328837209638e-18 -2.0344753882693823e-17 1.4958412406963597e-17 0.04234802722930908 0.0184658616781235 -0.0054163038730621485
          0.04646071791648867 0.013569928705692274 -0.01932086050510406 -3.0972918838315116e-18 6.194583767663022e-18 -3.216482831317816e-18
          -5.34404583736936e-18 1.0283852314657636e-17 -8.080930067212748e-18 7.143407930264694e-18 -1.767040726086019e-17 8.626133377598668e-18
          -2.2506394802322566e-17 1.62421748862211e-17 -1.2592825465582814e-17 8.499228231706435e-18 -8.684681270119676e-18 6.764287180357023e-18
        </DataArray>
        <DataArray type="Float64" Name="Continuous global L2-projection u_y,y" format="ascii" RangeMin="-0.10866863993560032" RangeMax="0.2173698891343691">
          -4.031574565610781e-19 -3.0443545320178165e-18 1.1526943248362446e-17 1.4726023896886372e-18 -1.5322384895132542e-18 -1.4039242292020027e-17
          -4.754995708983973e-18 8.009257419729387e-18 -7.695350359140792e-18 8.232189585913708e-18 -1.2678246089748728e-17 1.7725462987384852e-17
          0 -0.017463474619260476 -0.024894798915075574 -3.2857038455839257e-18 -0.0030724961816497604 0.02063232062576281
          9.540928538690813e-18 0.008730427397199472 0.012445532131174001 -1.3533791093759121e-17 0.0061459143573231335 -0.04127083259406438
          0 0.043456529200289994 0.2173698891343691 3.768795205272859e-18 0.007471028938377444 -0.06159347068086828
          -1.876065390484061e-17 -0.02172500498262682 -0.10866863993560032 2.5153490401663703e-17 -0.014944299781585414 0.12320542431777692
          1.7017014988859313e-17 0.06123935534997703 0.07236045460114769 -1.9604808534387074e-17 0.032279641908468965 0.021488469596763028
          1.38559153148055e-17 -0.030615084190898288 -0.036174799637348515 -2.4778335070652074e-17 -0.06456897028525659 -0.04298338744907242
          -1.492174521931994e-17 2.305616842487171e-17 3.1640270182299625e-18 1.249625567887181e-17 -1.8356761234114506e-17 1.448862767526176e-17
          -8.892276842110361e-18 1.1989011727501132e-17 -2.6487367662066918e-17 3.289656103737311e-18 3.2573526747924022e-18 1.5556648465669206e-17
        </DataArray>
        <DataArray type="Float64" Name="Continuous global L2-projection u_y,z" format="ascii" RangeMin="-0.11434884893142787" RangeMax="0.14408141679278805">
          5.112741429204074e-18 8.366345160297341e-18 2.7557213237585577e-18 -1.244593258937419e-18 -0.05228645336296509 -0.10107201367820833
          -3.964997256727702e-18 -0.0251830763855756 0.10868429039738466 9.184951721462103e-18 -1.26701827102197e-17 1.3273985259017078e-17
          -5.497257630024377e-18 6.796609433484682e-18 9.79511359531616e-18 2.190469230389284e-18 0.0289023636364964 0.14408141679278805
          4.7704642693454065e-18 0.008503290843589239 -0.07778200530034346 -5.953494300745558e-18 1.4301474098542755e-17 -3.234297996049357e-17
          2.932483545270145e-17 -4.3173833255872284e-17 6.212689097729415e-17 -3.876475068280656e-17 0.053902464916743636 0.05227024509889714
          -9.380326952420304e-18 0.050934437738774284 0.016314823425826113 1.7698648190522706e-17 -3.770108971645476e-17 4.0470160680989153e-17
          -8.674154591018939e-18 1.9475436055645288e-17 7.279296961036665e-18 2.4506010667983843e-18 -0.02277526656127611 -0.1135371734731887
          2.1361202776991814e-17 -0.00670065320769321 0.06129276922351605 -1.7551320675045233e-17 3.758047485715566e-17 -6.004101285126591e-17
          1.9296715551661876e-17 -3.700743415417189e-17 4.2789845740761244e-17 -2.2402678660873545e-17 -0.09466680016383335 -0.057133126512402196
          -3.964997256727703e-17 -0.1061269083663451 -0.11434884893142787 2.887975893626333e-17 -5.9742908728693e-17 2.2932560460439275e-17
        </DataArray>
        <DataArray type="Float64" Name="Continuous global L2-projection u_z,x" format="ascii" RangeMin="-0.07805288769304755" RangeMax="0.06889505498111248">
          1.5693602850752753e-17 -2.7455626069544646e-18 5.811296348479056e-18 -1.8706786082979633e-18 -7.571756859120763e-18 1.8477422434639634e-18
          -3.9668211661760265e-18 5.962317363296351e-18 -1.007426037246625e-17 7.127808822327728e-19 -2.6212713512661293e-18 3.1477716907331158e-18
          -2.6586736901572438e-17 2.798603884376046e-18 -9.79511359531616e-18 -0.04940311424434183 0.00974597036838532 0.06889505498111248
          -0.045448965393006795 -0.0040199924260377945 0.03740898054093124 -2.487754480303143e-18 5.0014444133211355e-18 -6.020786449949823e-18
          2.6115699238338563e-17 -8.655658044359707e-18 1.0352041255674305e-17 -0.07805288769304755 -0.019604943692684146 0.038843000307679156
          -0.01555671915411949 0.001469083130359647 0.018494885414838794 1.807083883477798e-18 -2.0745593132690493e-18 -2.1345511387550358e-19
          -3.5122190361109224e-19 1.7719458796081495e-17 -2.1622490639685236e-17 -0.01746259443461895 -0.020486399531364476 -0.023510204628109897
          0.034827516414225115 -0.012792715802788738 -0.06041294801980257 -3.716750260597812e-18 2.4778335070652084e-18 -4.288643775090422e-18
          6.16083689778383e-18 -1.1656256445514079e-17 1.3203325278101906e-17 -9.43997416988936e-18 2.1348780362533924e-17 -2.133564043019625e-17
          -8.011070865022367e-18 1.4391800532094646e-18 -5.037130186233125e-18 1.0741118941904972e-18 -1.919888560770592e-18 5.968702935386805e-18
        </DataArray>
        <DataArray type="Float64" Name="Continuous global L2-projection u_z,y" format="ascii" RangeMin="-0.13465136816424025" RangeMax="0.06731558405879579">
          2.906222055762575e-17 -4.549632727444729e-17 3.881561038247319e-17 2.8775697736193504e-18 2.1365533873539557e-19 7.656918787599766e-18
          -7.136893726608403e-18 2.3784477411448474e-18 -9.279746863565688e-18 2.091568162307227e-17 -2.8944799486201334e-17 1.6782937763620492e-17
          -6.296858739846103e-17 -0.05227165238300765 0.05160805455873403 1.0952346151946419e-17 -0.029060445006421062 -0.015493602095636771
          0 0.026131905363104873 -0.02580015622657445 -1.665697365385738e-17 0.05812961046521522 0.03099185350821046
          9.714451465470121e-17 -0.13465136816424025 -0.09587403664290385 -5.2763132873820034e-17 0.005710294092052534 0.015285930909211693
          3.752130780968122e-17 0.06731558405879579 0.04792982693513726 -6.938893903907228e-18 -0.011422301727984025 -0.030576448817433415
          -2.97797762305038e-17 -0.05570448540739613 -0.0829924026104847 0 0.02828327426485159 -0.018411233225010804
          -1.5010574924372627e-17 0.027848064382975893 0.04148997615347795 9.91133402826083e-18 -0.0565750357688397 0.0368279912891091
          1.9987350042285895e-17 -2.0460118459755354e-17 3.283324764991785e-17 5.021810215537128e-19 -5.339055773204156e-18 -7.842379433942132e-18
          4.177473616650105e-18 -1.5234238310559358e-17 2.2798967628275393e-17 -3.245219125642926e-18 1.6868977693822653e-17 -1.7760136559385994e-17
        </DataArray>
        <DataArray type="Float64" Name="Continuous global L2-projection u_z,z" format="ascii" RangeMin="-0.13629129172932383" RangeMax="0.12042171173619258">
          2.1260632010708136e-17 1.4047218509276127e-17 6.854178553176393e-18 -1.4935119107249028e-17 -0.0891627199062602 0.12042171173619258
          -2.1818669307250634e-34 -0.13629129172932383 -0.046467190548709424 1.6784085582525217e-17 -3.356817116505044e-17 2.0253532534478834e-17
          -1.1894066508598196e-17 6.996509710940114e-18 -2.44877839882904e-17 -8.761876921557135e-18 -0.0877276089169383 -0.06615640701437413
          7.15569640401811e-18 -0.010969287854414148 0.020879936383907133 -1.2165369844702258e-17 2.0387858310209408e-17 -1.6734853497592317e-18
          6.3698551722471646e-18 -9.31758332496509e-18 1.64338688609501e-17 6.46079178046776e-18 0.01607631660742472 -0.07557310052820457
          -4.690163476210152e-18 0.06459985770608587 -0.022754120279276382 1.0418552595575224e-17 -3.0509386295044592e-18 1.1093151718815474e-17
          1.1106133699092843e-17 -3.497502863983016e-17 -3.783754416159052e-18 -1.4703606400790307e-17 0.06912997507732063 0.05213171571151457
          -3.463978828701375e-18 0.008643876259178323 -0.016453537257606097 3.0972918838315093e-18 1.238916753532604e-18 1.9298896987906896e-17
          -5.933845715357629e-18 1.8503717077085944e-17 -1.61907524424502e-17 1.2445932589374192e-17 0.022400265087072272 0.10029900101732052
          7.929994513455405e-18 -0.0627785958025912 0.08713520368826148 -4.420840095911677e-18 7.850579582275178e-18 -1.0864183695044818e-17
        </DataArray>
        <DataArray type="Float64" Name="_z" format="ascii" RangeMin="-0.029285119846463203" RangeMax="0.009745970368385315">
          0 0 0 0 0 0
          0 0 0 0 0 0
          0 0 0 0 -0.014843376353383064 0.009745970368385315
          0 -0.015819653868675232 -0.004019992426037788 0 0 0
          0 0 0 0 -0.029285119846463203 -0.019604943692684174
          0 -0.004940725862979889 0.0014690831303596497 0 0 0
          0 0 0 0 -0.009235264733433723 -0.02048639953136444
          0 0.009477052837610245 -0.012792715802788734 0 0 0
          0 0 0 0 0 0
          0 0 0 0 0 0
        </DataArray>