<?xml version="1.0"?>
<VTKFile type="StructuredGrid" version="0.1" byte_order="LittleEndian" header_type="UInt32" compressor="vtkZLibDataCompressor">
  <StructuredGrid WholeExtent="0 14 0 14 0 0">
  <Piece Extent="0 14 0 14 0 0">
    <PointData>
      <DataArray type="Float32" Name="CLAT" format="ascii" RangeMin="-0.030918240547180176" RangeMax="3.4690818786621094">
        -0.030918240547180176 0.21908175945281982 0.4690817594528198 0.7190817594528198 0.9690817594528198 1.2190817594528198
        1.4690817594528198 1.7190817594528198 1.9690817594528198 2.2190818786621094 2.4690818786621094 2.7190818786621094
        2.9690818786621094 3.2190818786621094 3.4690818786621094 -0.030918240547180176 0.21908175945281982 0.4690817594528198
        0.7190817594528198 0.9690817594528198 1.2190817594528198 1.4690817594528198 1.7190817594528198 1.9690817594528198
        2.2190818786621094 2.4690818786621094 2.7190818786621094 2.9690818786621094 3.2190818786621094 3.4690818786621094
        -0.030918240547180176 0.21908175945281982 0.4690817594528198 0.7190817594528198 0.9690817594528198 1.2190817594528198
        1.4690817594528198 1.7190817594528198 1.9690817594528198 2.2190818786621094 2.4690818786621094 2.7190818786621094
        2.9690818786621094 3.2190818786621094 3.4690818786621094 -0.030918240547180176 0.21908175945281982 0.4690817594528198
        0.7190817594528198 0.9690817594528198 1.2190817594528198 1.4690817594528198 1.7190817594528198 1.9690817594528198
        2.2190818786621094 2.4690818786621094 2.7190818786621094 2.9690818786621094 3.2190818786621094 3.4690818786621094
        -0.030918240547180176 0.21908175945281982 0.4690817594528198 0.7190817594528198 0.9690817594528198 1.2190817594528198
        1.4690817594528198 1.7190817594528198 1.9690817594528198 2.2190818786621094 2.4690818786621094 2.7190818786621094
        2.9690818786621094 3.2190818786621094 3.4690818786621094 -0.030918240547180176 0.21908175945281982 0.4690817594528198
        0.7190817594528198 0.9690817594528198 1.2190817594528198 1.4690817594528198 1.7190817594528198 1.9690817594528198
        2.2190818786621094 2.4690818786621094 2.7190818786621094 2.9690818786621094 3.2190818786621094 3.4690818786621094
        -0.030918240547180176 0.21908175945281982 0.4690817594528198 0.7190817594528198 0.9690817594528198 1.2190817594528198
        1.4690817594528198 1.7190817594528198 1.9690817594528198 2.2190818786621094 2.4690818786621094 2.7190818786621094
        2.9690818786621094 3.2190818786621094 3.4690818786621094 -0.030918240547180176 0.21908175945281982 0.4690817594528198
        0.7190817594528198 0.9690817594528198 1.2190817594528198 1.4690817594528198 1.7190817594528198 1.9690817594528198
        2.2190818786621094 2.4690818786621094 2.7190818786621094 2.9690818786621094 3.2190818786621094 3.4690818786621094
        -0.030918240547180176 0.21908175945281982 0.4690817594528198 0.7190817594528198 0.9690817594528198 1.2190817594528198
        1.4690817594528198 1.7190817594528198 1.9690817594528198 2.2190818786621094 2.4690818786621094 2.7190818786621094
        2.9690818786621094 3.2190818786621094 3.4690818786621094 -0.030918240547180176 0.21908175945281982 0.4690817594528198
        0.7190817594528198 0.9690817594528198 1.2190817594528198 1.4690817594528198 1.7190817594528198 1.9690817594528198
        2.2190818786621094 2.4690818786621094 2.7190818786621094 2.9690818786621094 3.2190818786621094 3.4690818786621094
        -0.030918240547180176 0.21908175945281982 0.4690817594528198 0.7190817594528198 0.9690817594528198 1.2190817594528198
        1.4690817594528198 1.7190817594528198 1.9690817594528198 2.2190818786621094 2.4690818786621094 2.7190818786621094
        2.9690818786621094 3.2190818786621094 3.4690818786621094 -0.030918240547180176 0.21908175945281982 0.4690817594528198
        0.7190817594528198 0.9690817594528198 1.2190817594528198 1.4690817594528198 1.7190817594528198 1.9690817594528198
        2.2190818786621094 2.4690818786621094 2.7190818786621094 2.9690818786621094 3.2190818786621094 3.4690818786621094
        -0.030918240547180176 0.21908175945281982 0.4690817594528198 0.7190817594528198 0.9690817594528198 1.2190817594528198
        1.4690817594528198 1.7190817594528198 1.9690817594528198 2.2190818786621094 2.4690818786621094 2.7190818786621094
        2.9690818786621094 3.2190818786621094 3.4690818786621094 -0.030918240547180176 0.21908175945281982 0.4690817594528198
        0.7190817594528198 0.9690817594528198 1.2190817594528198 1.4690817594528198 1.7190817594528198 1.9690817594528198
        2.2190818786621094 2.4690818786621094 2.7190818786621094 2.9690818786621094 3.2190818786621094 3.4690818786621094
        -0.030918240547180176 0.21908175945281982 0.4690817594528198 0.7190817594528198 0.9690817594528198 1.2190817594528198
        1.4690817594528198 1.7190817594528198 1.9690817594528198 2.2190818786621094 2.4690818786621094 2.7190818786621094
        2.9690818786621094 3.2190818786621094 3.4690818786621094
      </DataArray>
      <DataArray type="Float32" Name="CLONG" format="ascii" RangeMin="-160.47576904296875" RangeMax="-156.97576904296875">
        -160.47576904296875 -160.47576904296875 -160.47576904296875 -160.47576904296875 -160.47576904296875 -160.47576904296875
        -160.47576904296875 -160.47576904296875 -160.47576904296875 -160.47576904296875 -160.47576904296875 -160.47576904296875
        -160.47576904296875 -160.47576904296875 -160.47576904296875 -160.22576904296875 -160.22576904296875 -160.22576904296875
        -160.22576904296875 -160.22576904296875 -160.22576904296875 -160.22576904296875 -160.22576904296875 -160.22576904296875
        -160.22576904296875 -160.22576904296875 -160.22576904296875 -160.22576904296875 -160.22576904296875 -160.22576904296875
        -159.97576904296875 -159.97576904296875 -159.97576904296875 -159.97576904296875 -159.97576904296875 -159.97576904296875
        -159.97576904296875 -159.97576904296875 -159.97576904296875 -159.97576904296875 -159.97576904296875 -159.97576904296875
        -159.97576904296875 -159.97576904296875 -159.97576904296875 -159.72576904296875 -159.72576904296875 -159.72576904296875
        -159.72576904296875 -159.72576904296875 -159.72576904296875 -159.72576904296875 -159.72576904296875 -159.72576904296875
        -159.72576904296875 -159.72576904296875 -159.72576904296875 -159.72576904296875 -159.72576904296875 -159.72576904296875
        -159.47576904296875 -159.47576904296875 -159.47576904296875 -159.47576904296875 -159.47576904296875 -159.47576904296875
        -159.47576904296875 -159.47576904296875 -159.47576904296875 -159.47576904296875 -159.47576904296875 -159.47576904296875
        -159.47576904296875 -159.47576904296875 -159.47576904296875 -159.22576904296875 -159.22576904296875 -159.22576904296875
        -159.22576904296875 -159.22576904296875 -159.22576904296875 -159.22576904296875 -159.22576904296875 -159.22576904296875
        -159.22576904296875 -159.22576904296875 -159.22576904296875 -159.22576904296875 -159.22576904296875 -159.22576904296875
        -158.97576904296875 -158.97576904296875 -158.97576904296875 -158.97576904296875 -158.97576904296875 -158.97576904296875
        -158.97576904296875 -158.97576904296875 -158.97576904296875 -158.97576904296875 -158.97576904296875 -158.97576904296875
        -158.97576904296875 -158.97576904296875 -158.97576904296875 -158.72576904296875 -158.72576904296875 -158.72576904296875
        -158.72576904296875 -158.72576904296875 -158.72576904296875 -158.72576904296875 -158.72576904296875 -158.72576904296875
        -158.72576904296875 -158.72576904296875 -158.72576904296875 -158.72576904296875 -158.72576904296875 -158.72576904296875
        -158.47576904296875 -158.47576904296875 -158.47576904296875 -158.47576904296875 -158.47576904296875 -158.47576904296875
        -158.47576904296875 -158.47576904296875 -158.47576904296875 -158.47576904296875 -158.47576904296875 -158.47576904296875
        -158.47576904296875 -158.47576904296875 -158.47576904296875 -158.22576904296875 -158.22576904296875 -158.22576904296875
        -158.22576904296875 -158.22576904296875 -158.22576904296875 -158.22576904296875 -158.22576904296875 -158.22576904296875
        -158.22576904296875 -158.22576904296875 -158.22576904296875 -158.22576904296875 -158.22576904296875 -158.22576904296875
        -157.97576904296875 -157.97576904296875 -157.97576904296875 -157.97576904296875 -157.97576904296875 -157.97576904296875
        -157.97576904296875 -157.97576904296875 -157.97576904296875 -157.97576904296875 -157.97576904296875 -157.97576904296875
        -157.97576904296875 -157.97576904296875 -157.97576904296875 -157.72576904296875 -157.72576904296875 -157.72576904296875
        -157.72576904296875 -157.72576904296875 -157.72576904296875 -157.72576904296875 -157.72576904296875 -157.72576904296875
        -157.72576904296875 -157.72576904296875 -157.72576904296875 -157.72576904296875 -157.72576904296875 -157.72576904296875
        -157.47576904296875 -157.47576904296875 -157.47576904296875 -157.47576904296875 -157.47576904296875 -157.47576904296875
        -157.47576904296875 -157.47576904296875 -157.47576904296875 -157.47576904296875 -157.47576904296875 -157.47576904296875
        -157.47576904296875 -157.47576904296875 -157.47576904296875 -157.22576904296875 -157.22576904296875 -157.22576904296875
        -157.22576904296875 -157.22576904296875 -157.22576904296875 -157.22576904296875 -157.22576904296875 -157.22576904296875
        -157.22576904296875 -157.22576904296875 -157.22576904296875 -157.22576904296875 -157.22576904296875 -157.22576904296875
        -156.97576904296875 -156.97576904296875 -156.97576904296875 -156.97576904296875 -156.97576904296875 -156.97576904296875
        -156.97576904296875 -156.97576904296875 -156.97576904296875 -156.97576904296875 -156.97576904296875 -156.97576904296875
        -156.97576904296875 -156.97576904296875 -156.97576904296875
      </DataArray>
      <DataArray type="Float32" Name="CON" format="ascii" RangeMin="0" RangeMax="1.4375">
        0.08125000447034836 0.08125000447034836 0.18125000596046448 0.26875001192092896 0.36250001192092896 0.3062500059604645
        0.36250001192092896 0.38750001788139343 0.3375000059604645 0.2874999940395355 0.23125000298023224 0.28125
        0.16875000298023224 0.39375001192092896 0.518750011920929 0.512499988079071 0.65625 0.4625000059604645
        0.14374999701976776 0.30000001192092896 0.22500000894069672 0.06875000149011612 0.04374999925494194 0.5
        0.4312500059604645 0.15625 0.16250000894069672 0.2750000059604645 0.3499999940395355 0.4749999940395355
        0.4312500059604645 0.6000000238418579 0.3687500059604645 0.13750000298023224 0.16250000894069672 0.32500001788139343
        0.40625 0.21250000596046448 0.08125000447034836 0.3687500059604645 0.19375000894069672 0.20624999701976776
        0.17499999701976776 0.28125 0.26250001788139343 0.21875 0.23125000298023224 0.08749999850988388
        0.13750000298023224 0.34375 0.38750001788139343 0.14374999701976776 0.25 0.518750011920929
        0.512499988079071 0.28125 0.7125000357627869 0.36250001192092896 0.30000001192092896 0.24375000596046448
        0.28125 0.17499999701976776 0.23749999701976776 0.1875 0.24375000596046448 0.4937500059604645
        0.606249988079071 0.5250000357627869 0.6875 0.26250001788139343 0.28125 0.3375000059604645
        0.21250000596046448 0.4937500059604645 0.3375000059604645 1 0.48125001788139343 0.5250000357627869
        0.38750001788139343 0.28125 0.5 0.23749999701976776 0.16250000894069672 0.41875001788139343
        0.581250011920929 0.2750000059604645 0.28125 0.4000000059604645 0.26250001788139343 0.40625
        0 0 0 0.8125 0.23125000298023224 0.14374999701976776
        0.3375000059604645 0.5687500238418579 0.550000011920929 1.1750000715255737 0.5562500357627869 0.737500011920929
        0.637499988079071 0.5250000357627869 0.5375000238418579 0 0 0
        0 0.23749999701976776 0.48750001192092896 0.7437500357627869 0.4124999940395355 0.16250000894069672
        0.36250001192092896 0.4749999940395355 1.118749976158142 0.824999988079071 0.7125000357627869 0.4000000059604645
        0 0 0 0 0 0
        0.46875 0.2874999940395355 0.29375001788139343 0.574999988079071 0.668749988079071 0.574999988079071
        0.4937500059604645 0.4000000059604645 0.856249988079071 0 0 0
        0 0 0.23125000298023224 0.6000000238418579 0.20000000298023224 0.543749988079071
        0.5687500238418579 0.5875000357627869 0.20624999701976776 0.35625001788139343 0.5062500238418579 0.5062500238418579
        0 0 0 0.32500001788139343 0.6500000357627869 0.543749988079071
        0.4749999940395355 0.2750000059604645 0.21875 0.20624999701976776 0.29375001788139343 0.2874999940395355
        0.3687500059604645 0.6000000238418579 0.643750011920929 0 0.550000011920929 0.40625
        0.22500000894069672 0.21875 0.13750000298023224 0.2562499940395355 0.45000001788139343 0.42500001192092896
        0.3187499940395355 0.71875 0.4124999940395355 0.48750001192092896 0.5 0.17499999701976776
        0.38750001788139343 1.4375 0.26250001788139343 1.2687500715255737 0 0.6312500238418579
        0.29375001788139343 0.18125000596046448 0.3375000059604645 0.53125 0.4375 0.1875
        0.46875 0.4625000059604645 0.543749988079071 0.30000001192092896 0.5250000357627869 0.5250000357627869
        0.4000000059604645 0 0 0 0.25 0.15625
        0.2562499940395355 0.3687500059604645 0.574999988079071 0.581250011920929 0.981249988079071 0.8687500357627869
        0.45000001788139343 0.2562499940395355 0.75 1.006250023841858 0 0
        0 0.26250001788139343 0.48125001788139343 0.2750000059604645 0.1875 0.41875001788139343
        0.3687500059604645 0.375 0.512499988079071
      </DataArray>
      <DataArray type="Float32" Name="COSALPHA" format="ascii" RangeMin="0.9249173998832703" RangeMax="0.9668126702308655">
        0.9668126702308655 0.9663349390029907 0.965851902961731 0.965354323387146 0.9648396968841553 0.9643158912658691
        0.9637799263000488 0.9632334113121033 0.9626705050468445 0.9620948433876038 0.9615047574043274 0.960895836353302
        0.9602770805358887 0.9596356153488159 0.9589767456054688 0.9650152325630188 0.9645166397094727 0.9640056490898132
        0.9634807705879211 0.962942898273468 0.9623968601226807 0.9618329405784607 0.961253821849823 0.9606677293777466
        0.9600628018379211 0.9594395160675049 0.9588028788566589 0.9581508040428162 0.9574815034866333 0.9567954540252686
        0.9631772637367249 0.9626551866531372 0.9621212482452393 0.9615678787231445 0.9610108137130737 0.960434079170227
        0.9598377346992493 0.9592397809028625 0.9586248993873596 0.9579882621765137 0.9573354125022888 0.9566701054573059
        0.9559838175773621 0.9552825093269348 0.9545645117759705 0.9613050818443298 0.960761308670044 0.9601967930793762
        0.9596205353736877 0.9590354561805725 0.9584282636642456 0.9578123688697815 0.9571829438209534 0.9565379619598389
        0.9558727741241455 0.9551933407783508 0.9544968008995056 0.9537755846977234 0.9530441164970398 0.9522918462753296
        0.9593973159790039 0.9588246941566467 0.958234965801239 0.957636296749115 0.9570231437683105 0.9563935995101929
        0.9557483196258545 0.9550856947898865 0.9544100761413574 0.9537186026573181 0.9530096054077148 0.9522798657417297
        0.9515323042869568 0.9507626891136169 0.9499803185462952 0.957451343536377 0.9568544030189514 0.956243097782135
        0.9556161761283875 0.9549760818481445 0.9543147087097168 0.9536407589912415 0.9529552459716797 0.9522500038146973
        0.9515255689620972 0.9507867693901062 0.950029730796814 0.9492493867874146 0.9484445452690125 0.9476258754730225
        0.9554712772369385 0.9548506736755371 0.9542133808135986 0.9535569548606873 0.9528898596763611 0.9522053599357605
        0.9514991044998169 0.9507826566696167 0.9500512480735779 0.9492982625961304 0.9485273957252502 0.9477381110191345
        0.9469276070594788 0.9460927844047546 0.94524085521698 0.9534575939178467 0.9528088569641113 0.9521461129188538
        0.9514660239219666 0.9507724642753601 0.9500543475151062 0.9493235945701599 0.9485824108123779 0.9478194117546082
        0.9470341205596924 0.9462321996688843 0.9454103708267212 0.9445674419403076 0.9437007904052734 0.9428153038024902
        0.9514129757881165 0.9507408142089844 0.950046181678772 0.9493382573127747 0.9486182928085327 0.9478753209114075
        0.9471173286437988 0.9463425278663635 0.9455482363700867 0.944737434387207 0.9439045190811157 0.943044900894165
        0.9421718120574951 0.9412794709205627 0.9403586983680725 0.9493305683135986 0.9486350417137146 0.9479214549064636
        0.9471840858459473 0.9464303255081177 0.9456645250320435 0.9448726773262024 0.9440683722496033 0.9432514905929565
        0.9424055814743042 0.9415360689163208 0.94065260887146 0.9397455453872681 0.9388113617897034 0.9378600120544434
        0.947223424911499 0.9464991092681885 0.9457525610923767 0.94499272108078 0.9442169070243835 0.9434163570404053
        0.942600667476654 0.9417665004730225 0.9409146904945374 0.9400377869606018 0.9391408562660217 0.9382243752479553
        0.9372899532318115 0.9363190531730652 0.9353325366973877 0.9450809359550476 0.9443320631980896 0.9435638189315796
        0.9427717924118042 0.9419634938240051 0.9411432147026062 0.9402998685836792 0.9394309520721436 0.9385474920272827
        0.9376456141471863 0.9367168545722961 0.9357659220695496 0.9347930550575256 0.9337974786758423 0.9327731132507324
        0.9429153800010681 0.9421382546424866 0.9413408041000366 0.9405181407928467 0.9396860003471375 0.9388396143913269
        0.9379637837409973 0.9370683431625366 0.9361525774002075 0.9352160096168518 0.9342589974403381 0.9332787394523621
        0.9322740435600281 0.9312398433685303 0.9301849007606506 0.9407156109809875 0.939910888671875 0.9390883445739746
        0.9382461905479431 0.9373887181282043 0.9364978671073914 0.93559330701828 0.9346749186515808 0.9337292909622192
        0.932766318321228 0.9317721128463745 0.9307605028152466 0.9297226071357727 0.9286501407623291 0.9275661706924438
        0.9384932518005371 0.9376634955406189 0.9368090629577637 0.9359391927719116 0.9350509643554688 0.9341336488723755
        0.9331981539726257 0.9322501420974731 0.9312834739685059 0.9302838444709778 0.929257333278656 0.9282125234603882
        0.9271475076675415 0.926042914390564 0.9249173998832703
      </DataArray>
      <DataArray type="Float32" Name="COSALPHA_U" format="ascii" RangeMin="0.9249171018600464" RangeMax="0.9668054580688477">
        0.9668054580688477 0.9663320779800415 0.9658463001251221 0.9653482437133789 0.9648375511169434 0.9643111228942871
        0.9637751579284668 0.9632291793823242 0.9626688361167908 0.9620883464813232 0.9614957571029663 0.9608919024467468
        0.9602699279785156 0.9596284031867981 0.9589748382568359 0.9650077819824219 0.964510977268219 0.96399986743927
        0.963477373123169 0.9629420638084412 0.962388277053833 0.9618253707885742 0.9612523913383484 0.9606624841690063
        0.9600558280944824 0.9594346880912781 0.958797812461853 0.9581475257873535 0.957474946975708 0.9567874073982239
        0.9631727933883667 0.9626510739326477 0.9621148109436035 0.9615669250488281 0.9610059261322021 0.9604271650314331
        0.959835946559906 0.9592335224151611 0.9586175084114075 0.9579837322235107 0.9573307037353516 0.9566624164581299
        0.9559807777404785 0.9552790522575378 0.9545590877532959 0.9613004922866821 0.9607549905776978 0.9601911902427673
        0.9596176147460938 0.9590308666229248 0.9584274291992188 0.9578081965446472 0.9571746587753296 0.9565320611000061
        0.9558695554733276 0.9551865458488464 0.9544898867607117 0.9537748694419861 0.9530397653579712 0.9522879719734192
        0.9593923091888428 0.9588204622268677 0.9582302570343018 0.9576303958892822 0.9570193290710449 0.9563895463943481
        0.9557417631149292 0.9550790786743164 0.9544075727462769 0.9537148475646973 0.9530031681060791 0.9522768259048462
        0.951528787612915 0.950760006904602 0.9499737024307251 0.957447350025177 0.9568490982055664 0.9562357664108276
        0.9556106328964233 0.9549688696861267 0.9543121457099915 0.9536396265029907 0.9529463052749634 0.9522452354431152
        0.9515247941017151 0.9507818222045898 0.9500236511230469 0.9492427110671997 0.9484426975250244 0.9476240873336792
        0.9554671049118042 0.9548466205596924 0.954206109046936 0.9535527229309082 0.9528837203979492 0.9521992802619934
        0.9515000581741333 0.9507789611816406 0.9500455856323242 0.9492952823638916 0.9485231637954712 0.9477343559265137
        0.9469223022460938 0.9460868835449219 0.9452351331710815 0.953454852104187 0.952810525894165 0.9521417617797852
        0.9514564275741577 0.950764000415802 0.9500561952590942 0.9493250846862793 0.9485762119293213 0.9478132724761963
        0.9470293521881104 0.9462270736694336 0.9454067945480347 0.9445630311965942 0.9436949491500854 0.9428107738494873
        0.9514080286026001 0.9507355690002441 0.9500442743301392 0.9493322372436523 0.9486117362976074 0.9478764533996582
        0.9471145868301392 0.9463368654251099 0.9455448985099792 0.944732666015625 0.9438984394073486 0.9430440664291382
        0.9421683549880981 0.9412688612937927 0.9403516054153442 0.9493287801742554 0.9486299157142639 0.9479132890701294
        0.9471763968467712 0.9464284181594849 0.9456590414047241 0.9448700547218323 0.9440656304359436 0.9432423710823059
        0.9424008131027222 0.941537082195282 0.9406505823135376 0.9397419095039368 0.9388088583946228 0.9378555417060852
        0.9472213983535767 0.9464951157569885 0.9457507133483887 0.9449876546859741 0.9442118406295776 0.9434128403663635
        0.9425942897796631 0.9417616724967957 0.940911591053009 0.9400356411933899 0.939140796661377 0.9382225275039673
        0.9372826814651489 0.9363178014755249 0.9353281855583191 0.9450817108154297 0.9443285465240479 0.9435582160949707
        0.9427676200866699 0.9419640898704529 0.9411396384239197 0.940287709236145 0.9394239187240601 0.9385501742362976
        0.9376422166824341 0.9367125034332275 0.9357619881629944 0.9347915649414062 0.9337941408157349 0.9327700138092041
        0.9429130554199219 0.9421337246894836 0.9413362741470337 0.9405174851417542 0.9396848678588867 0.9388317465782166
        0.9379540681838989 0.9370604753494263 0.9361538887023926 0.9352170825004578 0.9342552423477173 0.9332748651504517
        0.9322687387466431 0.9312353134155273 0.9301812648773193 0.9407165050506592 0.9399088025093079 0.9390840530395508
        0.9382423758506775 0.9373793601989746 0.9364947080612183 0.9355908632278442 0.9346699118614197 0.9337294101715088
        0.9327606558799744 0.9317694306373596 0.9307578802108765 0.9297167658805847 0.9286479949951172 0.9275633692741394
        0.9384901523590088 0.9376559853553772 0.936805009841919 0.9359360933303833 0.9350479245185852 0.9341360926628113
        0.9331980347633362 0.9322479963302612 0.9312787055969238 0.930279016494751 0.9292566180229187 0.9282090663909912
        0.9271395206451416 0.9260373115539551 0.9249171018600464
      </DataArray>
      <DataArray type="Float32" Name="COSALPHA_V" format="ascii" RangeMin="0.9249192476272583" RangeMax="0.9668116569519043">
        0.9668116569519043 0.9663347005844116 0.9658477306365967 0.9653505682945251 0.9648386836051941 0.9643163681030273
        0.9637818336486816 0.9632319211959839 0.9626684188842773 0.9620921611785889 0.9615031480789185 0.9608958959579468
        0.9602712392807007 0.9596342444419861 0.9589798450469971 0.9650129079818726 0.9645137786865234 0.9640024304389954
        0.963480532169342 0.9629442095756531 0.9623923301696777 0.9618305563926697 0.9612571597099304 0.960666298866272
        0.9600579142570496 0.9594376087188721 0.9588024616241455 0.9581488966941833 0.9574809074401855 0.9567938446998596
        0.9631776809692383 0.9626538753509521 0.9621168375015259 0.9615675210952759 0.9610062837600708 0.9604318141937256
        0.959843635559082 0.9592395424842834 0.9586173295974731 0.9579813480377197 0.9573348164558411 0.9566707611083984
        0.9559851884841919 0.955281138420105 0.9545598030090332 0.9613049030303955 0.9607563018798828 0.9601936340332031
        0.9596215486526489 0.9590352177619934 0.958429217338562 0.9578107595443726 0.9571811556816101 0.9565324187278748
        0.9558695554733276 0.9551911950111389 0.9544909000396729 0.9537750482559204 0.9530436992645264 0.9522922039031982
        0.9593936204910278 0.9588221311569214 0.9582370519638062 0.9576356410980225 0.9570200443267822 0.9563899636268616
        0.9557455778121948 0.9550870060920715 0.9544095993041992 0.9537162184715271 0.9530050754547119 0.9522753953933716
        0.9515308737754822 0.9507653117179871 0.949977457523346 0.9574481248855591 0.9568532109260559 0.9562416076660156
        0.9556118249893188 0.9549699425697327 0.9543152451515198 0.9536430835723877 0.9529558420181274 0.9522486329078674
        0.9515230655670166 0.9507826566696167 0.9500234127044678 0.9492448568344116 0.9484464526176453 0.9476292133331299
        0.955470085144043 0.9548453688621521 0.9542074203491211 0.9535571932792664 0.9528894424438477 0.9522031545639038
        0.9515016078948975 0.950783908367157 0.9500478506088257 0.9492942690849304 0.9485249519348145 0.9477342367172241
        0.9469224214553833 0.9460922479629517 0.945239782333374 0.9534581303596497 0.9528099298477173 0.9521419405937195
        0.9514620304107666 0.950769305229187 0.9500552415847778 0.9493243098258972 0.9485816955566406 0.9478176236152649
        0.9470306634902954 0.9462279677391052 0.9454053640365601 0.9445632100105286 0.9437017440795898 0.9428136944770813
        0.951407253742218 0.9507340788841248 0.9500465393066406 0.9493409395217896 0.9486163854598999 0.9478731155395508
        0.9471153020858765 0.9463418126106262 0.9455469250679016 0.9447329044342041 0.9438998699188232 0.9430446624755859
        0.9421712160110474 0.9412758946418762 0.9403539896011353 0.9493308663368225 0.9486305713653564 0.9479151964187622
        0.9471797943115234 0.9464288949966431 0.9456628561019897 0.9448735117912292 0.944068431854248 0.9432467222213745
        0.9423995018005371 0.9415345788002014 0.9406509399414062 0.9397421479225159 0.9388117790222168 0.9378606081008911
        0.9472196698188782 0.9464940428733826 0.9457523822784424 0.944989800453186 0.9442116022109985 0.9434182643890381
        0.9426007270812988 0.9417645335197449 0.9409109354019165 0.9400357604026794 0.9391389489173889 0.9382216930389404
        0.9372828602790833 0.93631911277771 0.9353331327438354 0.9450832605361938 0.9443297982215881 0.9435555338859558
        0.9427695274353027 0.9419665336608887 0.9411420822143555 0.9402946829795837 0.9394278526306152 0.9385449886322021
        0.9376420974731445 0.9367135763168335 0.9357618093490601 0.9347929358482361 0.9337978363037109 0.9327731132507324
        0.9429126977920532 0.9421347975730896 0.9413389563560486 0.9405244588851929 0.93968665599823 0.9388303160667419
        0.937957763671875 0.9370672702789307 0.9361529350280762 0.9352158904075623 0.9342595934867859 0.9332759380340576
        0.9322664737701416 0.9312375783920288 0.9301828145980835 0.9407126903533936 0.9399069547653198 0.9390847682952881
        0.938244640827179 0.9373822212219238 0.936498761177063 0.935594916343689 0.934673011302948 0.933729887008667
        0.9327595233917236 0.9317691326141357 0.9307570457458496 0.9297171235084534 0.9286528825759888 0.9275645017623901
        0.9384902715682983 0.9376561641693115 0.9368058443069458 0.9359384775161743 0.9350461959838867 0.9341334104537964
        0.9332022666931152 0.9322500228881836 0.9312750101089478 0.930277943611145 0.9292573928833008 0.9282110929489136
        0.9271403551101685 0.9260423183441162 0.9249192476272583
      </DataArray>
      <DataArray type="Float32" Name="E" format="ascii" RangeMin="0.00006816068344051018" RangeMax="0.0000779049369157292">
        0.00007562396058347076 0.00007509736315114424 0.00007456966704921797 0.00007404091593343765 0.00007351118983933702 0.00007298040145542473
        0.00007244863081723452 0.00007191589247668162 0.00007138214277802035 0.00007084746903274208 0.00007031189306871966 0.00006977538578212261
        0.00006923798355273902 0.00006869975186418742 0.00006816068344051018 0.00007576470670755953 0.00007523946260334924 0.00007471314165741205
        0.00007418578752549365 0.0000736574293114245 0.00007312805973924696 0.00007259771518874913 0.000072066395659931 0.00007153412298066542
        0.00007100094080669805 0.00007046685641398653 0.00006993186252657324 0.0000693960246280767 0.00006885932816658169 0.00006832184590166435
        0.0000759090471547097 0.00007538516365457326 0.00007486022514058277 0.00007433430437231436 0.00007380735769402236 0.00007327939238166437
        0.00007275052485056221 0.00007222071144497022 0.00007168992306105793 0.0000711582470103167 0.0000706256614648737 0.00007009224646026269
        0.00006955795106478035 0.00006902285531396046 0.00006848698831163347 0.0000760568946134299 0.00007553440809715539 0.00007501088111894205
        0.00007448640099028125 0.00007396090950351208 0.00007343444303842261 0.00007290705980267376 0.0000723787015886046 0.00007184947025962174
        0.00007131932215997949 0.00007078831549733877 0.00007025644299574196 0.00006972377741476521 0.00006919028965057805 0.00006865605973871425
        0.00007620816177222878 0.00007568711589556187 0.00007516508048865944 0.00007464203372364864 0.00007411802653223276 0.0000735930516384542
        0.00007306718180188909 0.00007254036609083414 0.0000720126845408231 0.00007148409349611029 0.0000709546948201023 0.00007042443030513823
        0.00006989339453866705 0.00006936155841685832 0.00006882900197524577 0.000076362892286852 0.00007584332342958078 0.0000753227504901588