<?xml version="1.0"?>
<VTKFile type="UnstructuredGrid" version="0.1" byte_order="LittleEndian" header_type="UInt32" compressor="vtkZLibDataCompressor">
  <UnstructuredGrid>
    <Piece NumberOfPoints="173" NumberOfCells="190">
      <PointData>
        <DataArray type="Float32" Name="XLAT" format="ascii" RangeMin="-79.09431457519531" RangeMax="83.4140853881836">
          -36.434967041015625 -35.26168441772461 -33.08713150024414 -30.20655059814453 -26.97258186340332 -23.742050170898438
          -20.84287452697754 -18.553916931152344 -17.08961296081543 -16.585935592651367 -17.08961296081543 -18.553916931152344
          -20.842872619628906 -23.742053985595703 -26.97257423400879 -30.20655059814453 -33.087127685546875 -35.26167678833008
          -36.434967041015625 -55.956668853759766 -51.33585739135742 -43.662967681884766 -34.554622650146484 -25.11931037902832
          -16.129915237426758 -8.222798347473145 -1.9903244972229004 2.0243630409240723 3.414057970046997 2.024358034133911
          -1.9903210401535034 -8.222794532775879 -16.129924774169922 -25.11929702758789 -34.55461502075195 -43.662960052490234
          -51.33584976196289 -55.956668853759766 -74.44549560546875 -62.8924674987793 -48.732810974121094 -34.25332260131836
          -20.135629653930664 -6.8634819984436035 4.991708278656006 14.650642395019531 21.115882873535156 23.414058685302734
          21.115869522094727 14.650650978088379 4.991714954376221 -6.8634934425354 -20.135608673095703 -34.2533073425293
          -48.7327995300293 -62.892452239990234 -74.44549560546875 -79.09431457519531 -63.14070510864258 -46.23723602294922
          -29.381717681884766 -12.853670120239258 3.05084228515625 17.85150146484375 30.668725967407227 39.92125701904297
          43.414058685302734 39.92124557495117 30.66873550415039 17.851512908935547 3.050827741622925 -12.853643417358398
          -29.38170051574707 -46.23722457885742 -63.140689849853516 -79.09431457519531 -61.89278030395508 -51.857933044433594
          -37.2769660949707 -21.05241584777832 -4.235024452209473 12.68136215209961 29.282487869262695 44.88612747192383
          57.75886154174805 63.41405487060547 57.75885009765625 44.886131286621094 29.28249740600586 12.68134593963623
          -4.234997272491455 -21.052400588989258 -37.27695846557617 -51.857913970947266 -61.89278030395508 -42.51667404174805
          -35.87250518798828 -24.58701515197754 -10.631433486938477 4.799738883972168 21.060726165771484 37.78398513793945
          54.70705032348633 71.41814422607422 83.4140853881836 71.41812133789062 54.707061767578125 37.78399658203125
          21.060710906982422 4.799764633178711 -10.631420135498047 -24.587007522583008 -35.872493743896484 -42.51667404174805
          -22.83197021484375 -18.349164962768555 -10.154090881347656 0.7158156037330627 13.361971855163574 27.119108200073242
          41.47991180419922 55.92148208618164 69.32550048828125 76.58592987060547 69.32546997070312 55.92149353027344
          41.47991943359375 27.119094848632812 13.361992835998535 0.7158257961273193 -10.15408706665039 -18.349159240722656
          -22.83197021484375 -3.064091444015503 -0.3243042230606079 4.861444473266602 12.003402709960938 20.52749252319336
          29.82451057434082 39.20808410644531 47.76811599731445 54.143428802490234 56.585933685302734 54.14342498779297
          47.76811981201172 39.208091735839844 29.824501037597656 20.527507781982422 12.003410339355469 4.861447811126709
          -0.3242990970611572 -3.064091444015503 16.712594985961914 17.70819664001465 19.607032775878906 22.232275009155273
          25.335437774658203 28.61105728149414 31.713668823242188 34.28321838378906 35.98786926269531 36.585941314697266
          35.98786926269531 34.28321838378906 31.713668823242188 28.611055374145508 25.3354434967041 22.232276916503906
          19.60703468322754 17.70819854736328 16.712594985961914 -26.36594009399414 26.365938186645508
        </DataArray>
        <DataArray type="Float32" Name="XLONG" format="ascii" RangeMin="-179.48455810546875" RangeMax="179.36892700195312">
          8.371694564819336 4.598247051239014 1.636704444885254 -0.19567124545574188 -0.7890507578849792 -0.1893191784620285
          1.458791732788086 3.947890043258667 7.02587366104126 10.40759563446045 13.789331436157227 16.86730194091797
          19.356399536132812 21.0045108795166 21.6042423248291 21.010862350463867 19.17848777770996 16.216943740844727
          12.443497657775879 1.9541033506393433 -11.982322692871094 -20.156938552856445 -23.3697509765625 -22.982751846313477
          -19.89471435546875 -14.612192153930664 -7.488495826721191 1.058406114578247 10.407608985900879 19.756799697875977
          28.303688049316406 35.42738342285156 40.70991897583008 43.797943115234375 44.184940338134766 40.972129821777344
          32.79752731323242 18.861101150512695 -17.639755249023438 -42.73664093017578 -48.295867919921875 -47.666099548339844
          -43.994873046875 -38.006710052490234 -29.664302825927734 -18.691835403442383 -5.056703090667725 10.407608985900879
          25.87192153930664 39.507015228271484 50.4794807434082 58.8218994140625 64.81006622314453 68.48129272460938
          69.11106872558594 63.55183410644531 38.45497512817383 -114.75559997558594 -87.73682403564453 -77.85042572021484
          -70.55171203613281 -63.44577407836914 -55.40792465209961 -45.33025360107422 -31.738794326782227 -13.035893440246582
          10.407608985900879 33.85112762451172 52.55397415161133 66.14543914794922 76.22313690185547 84.26097106933594
          91.36691284179688 98.6656265258789 108.55200958251953 135.57078552246094 -149.14385986328125 -119.1825180053711
          -101.98352813720703 -90.6988525390625 -81.71620178222656 -73.12652587890625 -63.29389953613281 -49.69354248046875
          -27.0836238861084 10.407623291015625 47.89887237548828 70.50874328613281 84.10909271240234 93.94172668457031
          102.53137969970703 111.5140380859375 122.79872131347656 139.99766540527344 169.9590301513672 -157.4794921875
          -136.0926513671875 -120.1026840209961 -108.47928619384766 -99.57796478271484 -92.13240051269531 -85.09880828857422
          -77.01148223876953 -62.82917022705078 10.407705307006836 83.64440155029297 97.8266830444336 105.91400909423828
          112.94760131835938 120.39317321777344 129.29443359375 140.91786193847656 156.90782165527344 178.294677734375
          -161.72935485839844 -147.0028076171875 -134.66311645507812 -125.03866577148438 -117.90226745605469 -113.04633331298828
          -110.72171783447266 -112.48270416259766 -124.80217742919922 -169.59246826171875 145.61732482910156 133.29794311523438
          131.53692626953125 133.86154174804688 138.71746826171875 145.85385131835938 155.47828674316406 167.81797790527344
          -177.45547485351562 -164.86500549316406 -155.8251953125 -147.92674255371094 -141.679931640625 -137.44650268554688
          -135.62660217285156 -136.89456176757812 -142.40428161621094 -153.5015106201172 -169.59242248535156 174.3166961669922
          163.21949768066406 157.7097625732422 156.44178771972656 158.26170349121094 162.49513244628906 168.7418975830078
          176.640380859375 -174.31980895996094 -167.88230895996094 -164.615234375 -161.79786682128906 -159.7002410888672
          -158.55374145507812 -158.5375213623047 -159.75291442871094 -162.17576599121094 -165.5966033935547 -169.59242248535156
          -173.5882110595703 -177.00904846191406 -179.43190002441406 179.3527069091797 179.36892700195312 -179.48455810546875
          -177.38693237304688 -174.56954956054688 -171.302490234375 10.40759563446045 -169.59239196777344
        </DataArray>
        <DataArray type="Float32" Name="LU_INDEX" format="ascii" RangeMin="1" RangeMax="18">
          17 17 17 17 17 17
          17 17 17 17 9 9
          7 7 7 7 17 17
          17 15 17 17 17 17
          17 17 17 17 2 2
          2 9 17 17 17 17
          17 17 15 15 17 17
          9 17 17 17 16 16
          16 16 17 17 17 17
          17 15 15 15 17 17
          17 2 2 17 17 17
          12 16 16 17 17 17
          17 17 15 15 17 17
          17 17 17 17 17 17
          17 1 12 10 12 17
          17 17 17 17 17 17
          17 17 17 17 17 4
          18 17 15 17 5 10
          5 17 17 7 17 17
          17 17 17 17 17 17
          10 1 18 15 18 3
          17 17 17 17 17 17
          17 17 17 17 17 17
          17 17 17 17 17 17
          17 17 17 17 17 17
          17 17 17 17 17 17
          17 17 17 17 17 17
          17 17 17 17 17 17
          17 17 17 14.052631378173828 17
        </DataArray>
        <DataArray type="Float32" Name="VAR_SSO" format="ascii" RangeMin="0" RangeMax="87000.1875">
          0 0 0 0 0 0
          29.076244354248047 0 0 173.46023559570312 7280.64453125 1713.4564208984375
          1692.744140625 1739.8660888671875 7091.27685546875 7226.77197265625 4823.7236328125 0
          0 4.797351837158203 0 25.716461181640625 0 0.2496993988752365
          0 2.085860013961792 213.5469970703125 491.6503601074219 4837.2939453125 1371.9881591796875
          9234.8681640625 8803.390625 4278.06494140625 1774.9337158203125 0 33.657005310058594
          0 0 0 279.79180908203125 83.99690246582031 788.7703247070312
          4536.09375 1513.4990234375 0 856.877685546875 1189.1771240234375 1680.3717041015625
          2123.79736328125 16667.064453125 1422.168701171875 3.771632671356201 227.49847412109375 2.434486150741577
          144.08908081054688 0 0 0 0 14436.033203125
          21332.263671875 20417.845703125 3575.385498046875 0 108.07470703125 4956.90673828125
          17120.349609375 26783.99609375 17547.533203125 1307.7265625 1504.5396728515625 0
          0 0 0 0 0 0
          0 0 22447.330078125 15440.55859375 0.29663607478141785 370.9743347167969
          81.44950103759766 1810.5963134765625 818.0090942382812 18975.755859375 58918.20703125 9100.5390625
          4607.1787109375 210.56690979003906 118.09986114501953 0 39.24305725097656 0
          0.005383153911679983 1.0616005659103394 0 152.39044189453125 12764.6376953125 1837.3494873046875
          2981.228271484375 0 0 59.46195602416992 22246.48046875 49258.73046875
          26117.66796875 10170.11328125 4491.7734375 968.1251220703125 1884.122314453125 6880.87109375
          2.9041454792022705 56.10591506958008 37.81855010986328 0 0.5218933820724487 11658.384765625
          25372.888671875 34467.859375 87000.1875 0 9830.3427734375 10086.8408203125
          7919.501953125 1020.3629760742188 10.457804679870605 11677.62890625 3625.6650390625 496.5499572753906
          303.1634826660156 0.001306430553086102 0.03374908119440079 0 0 0
          0 85.04072570800781 1334.7139892578125 5023.85107421875 1058.7508544921875 2133.051025390625
          2624.426025390625 212.7364501953125 0 0.0001379120076308027 4.88595724105835 1.1568914651870728
          0.013057511299848557 0.00029291154351085424 0.0028214429039508104 0 0 3725.49609375
          0 0 0 0 0 0
          0 0 0 0.0014908683951944113 0 0
          0 0 0 1672.158935546875 196.0789794921875
        </DataArray>
        <DataArray type="Float32" Name="U" format="ascii" RangeMin="0" RangeMax="0">
          0 0 0 0 0 0
          0 0 0 0 0 0
          0 0 0 0 0 0
          0 0 0 0 0 0
          0 0 0 0 0 0
          0 0 0 0 0 0
          0 0 0 0 0 0
          0 0 0 0 0 0
          0 0 0 0 0 0
          0 0 0 0 0 0
          0 0 0 0 0 0
          0 0 0 0 0 0
          0 0 0 0 0 0
          0 0 0 0 0 0
          0 0 0 0 0 0
          0 0 0 0 0 0
          0 0 0 0 0 0
          0 0 0 0 0 0
          0 0 0 0 0 0
          0 0 0 0 0 0
          0 0 0 0 0 0
          0 0 0 0 0 0
          0 0 0 0 0 0
          0 0 0 0 0 0
          0 0 0 0 0 0
          0 0 0 0 0 0
          0 0 0 0 0 0
          0 0 0 0 0 0
          0 0 0 0 0
        </DataArray>
        <DataArray type="Float32" Name="V" format="ascii" RangeMin="0" RangeMax="0">
          0 0 0 0 0 0
          0 0 0 0 0 0
          0 0 0 0 0 0
          0 0 0 0 0 0
          0 0 0 0 0 0
          0 0 0 0 0 0
          0 0 0 0 0 0
          0 0 0 0 0 0
          0 0 0 0 0 0
          0 0 0 0 0 0
          0 0 0 0 0 0
          0 0 0 0 0 0
          0 0 0 0 0 0
          0 0 0 0 0 0
          0 0 0 0 0 0
          0 0 0 0 0 0
          0 0 0 0 0 0
          0 0 0 0 0 0
          0 0 0 0 0 0
          0 0 0 0 0 0
          0 0 0 0 0 0
          0 0 0 0 0 0
          0 0 0 0 0 0
          0 0 0 0 0 0
          0 0 0 0 0 0
          0 0 0 0 0 0
          0 0 0 0 0 0
          0 0 0 0 0 0
          0 0 0 0 0
        </DataArray>
        <DataArray type="Float32" Name="W" format="ascii" RangeMin="1" RangeMax="1">
          1 1 1 1 1 1
          1 1 1 1 1 1
          1 1 1 1 1 1
          1 1 1 1 1 1
          1 1 1 1 1 1
          1 1 1 1 1 1
          1 1 1 1 1 1
          1 1 1 1 1 1
          1 1 1 1 1 1
          1 1 1 1 1 1
          1 1 1 1 1 1
          1 1 1 1 1 1
          1 1 1 1 1 1
          1 1 1 1 1 1
          1 1 1 1 1 1
          1 1 1 1 1 1
          1 1 1 1 1 1
          1 1 1 1 1 1
          1 1 1 1 1 1
          1 1 1 1 1 1
          1 1 1 1 1 1
          1 1 1 1 1 1
          1 1 1 1 1 1
          1 1 1 1 1 1
          1 1 1 1 1 1
          1 1 1 1 1 1
          1 1 1 1 1 1
          1 1 1 1 1 1
          1 1 1 1 1
        </DataArray>
        <DataArray type="Float32" Name="PH" format="ascii" RangeMin="-410.75152587890625" RangeMax="215.09317016601562">
          -24.67234230041504 -19.121986389160156 -9.964302062988281 1.9016482830047607 15.322219848632812 29.20711898803711
          42.81878662109375 55.51812744140625 66.40726470947266 74.21624755859375 77.44600677490234 74.75298309326172
          65.40415954589844 49.73778533935547 29.60193634033203 8.401108741760254 -9.640828132629395 -21.250900268554688
          -25.808237075805664 -182.25701904296875 -141.4312744140625 -70.6668472290039 12.90458869934082 68.42691802978516
          90.37081909179688 95.86551666259766 93.57801818847656 97.20854187011719 113.65718078613281 125.67550659179688
          117.12763977050781 94.67753601074219 85.0770263671875 66.50375366210938 23.217132568359375 -53.976890563964844
          -143.62066650390625 -196.2911834716797 -322.53814697265625 -253.6102294921875 -67.08659362792969 42.55434036254883
          66.57844543457031 131.70513916015625 134.83782958984375 129.20216369628906 195.21493530273438 156.5692138671875
          196.57821655273438 136.60015869140625 127.72915649414062 127.89920806884766 44.46009063720703 -33.4473876953125
          -81.17924499511719 -155.33929443359375 -345.6898498535156 -316.0520935058594 -119.76226806640625 -42.70849609375
          92.77372741699219 143.76171875 127.6716079711914 132.91275024414062 99.1640625 41.30963897705078
          98.42321014404297 72.14505004882812 176.977783203125 152.63766479492188 147.98841857910156 104.41004943847656
          31.97599983215332 -83.20684814453125 -141.64073181152344 -410.75152587890625 -123.03483581542969 -99.72422790527344
          -14.750560760498047 35.19330596923828 47.28298568725586 159.26229858398438 131.88523864746094 30.349803924560547
          0.15528005361557007 -10.34122085571289 19.722015380859375 97.83604431152344 194.75930786132812 153.18179321289062
          135.88206481933594 52.945640563964844 -19.931640625 -135.47024536132812 -134.78138732910156 -60.99916076660156
          4.245393753051758 46.051513671875 90.00069427490234 120.78111267089844 148.4396514892578 119.27117919921875
          33.19712448120117 -65.41847229003906 -104.07896423339844 23.126773834228516 68.5062484741211 173.63710021972656
          149.7527313232422 132.7198944091797 102.78292083740234 97.51994323730469 31.953296661376953 -8.903707504272461
          59.18863296508789 112.93302917480469 123.153076171875 107.09915161132812 151.05422973632812 174.34744262695312
          215.09317016601562 89.7787857055664 59.65520477294922 -105.3890380859375 -22.640594482421875 46.776824951171875
          114.58128356933594 146.728271484375 148.27029418945312 151.1705322265625 129.06475830078125 65.31961822509766
          71.07566833496094 138.18258666992188 129.81602478027344 129.73130798339844 124.90442657470703 101.1595687866211
          73.24526977539062 46.44818115234375 19.713768005371094 4.408827781677246 -15.615203857421875 -24.069068908691406
          9.534326553344727 84.03367614746094 143.03492736816406 152.09573364257812 146.4091033935547 148.1201934814453
          149.24432373046875 146.22830200195312 144.36410522460938 140.77423095703125 135.7752685546875 129.3708953857422
          121.82229614257812 113.95175170898438 107.19964599609375 103.21296691894531 103.08529663085938 106.76541137695312
          113.11756896972656 120.5921630859375 127.93118286132812 134.42860412597656 139.77499389648438 143.7940216064453
          146.31619262695312 147.22853088378906 146.54345703125 25.277725219726562 127.686767578125
        </DataArray>
        <DataArray type="Float32" Name="PHB" format="ascii" RangeMin="2294.1181640625" RangeMax="20361.91796875">
          3325.998046875 3676.02880859375 4080.6484375 4287.978515625 4286.6552734375 4151.51025390625
          3998.4775390625 4058.10546875 4625.3125 5859.509765625 7451.1181640625 8812.0390625
          9449.716796875 9238.7685546875 8270.69140625 6778.392578125 5181.7802734375 3941.59423828125
          3326.751953125 4534.50537109375 2637.265869140625 2294.1181640625 2420.3828125 2464.2685546875
          2405.662109375 2377.787109375 2645.14453125 3966.9345703125 6003.64208984375 8728.1923828125
          10989.2109375 10198.734375 7385.021484375 5653.44482421875 4270.556640625 2834.58447265625
          3375.41650390625 4397.6806640625 13282.7080078125 2907.296630859375 2419.13330078125 4098.3115234375
          6305.7109375 4614.6650390625 2419.13330078125 2816.896484375 5182.736328125 7207.048828125
          8296.44140625 8180.7578125 4726.34765625 2419.402587890625 2419.20068359375 2419.13330078125
          2433.0068359375 9229.703125 16809.46875 12402.421875 3107.468505859375 2769.03369140625
          5080.04296875 7577.76220703125 5001.625 2419.13330078125 2419.74462890625 3626.83544921875
          5999.97802734375 8844.482421875 9598.7490234375 5086.90234375 2492.004150390625 2455.03125
          2419.13330078125 2419.13330078125 10275.7490234375 20361.91796875 4245.81689453125 2625.642822265625
          2699.279541015625 3262.73388671875 4065.048095703125 3267.83935546875 2419.13330078125 2419.13330078125
          3247.672607421875 3886.5908203125 6069.65673828125 12092.0009765625 12317.708984375 5359.9169921875
          2551.29296875 3400.905029296875 3382.417236328125 4740.46728515625 7416.54296875 2419.13330078125
          2419.13330078125 2419.14501953125 2419.13330078125 2420.50390625 4049.83984375 6619.822265625
          6453.7060546875 4847.4892578125 3135.68896484375 4435.7548828125 11650.9501953125 14239.619140625
          6733.314453125 2942.332763671875 3475.37939453125 3706.87158203125 2464.350830078125 3261.625732421875
          2419.718994140625 2420.694091796875 2419.1435546875 2419.13330078125 2419.15869140625 5396.486328125
          10181.6953125 8896.556640625 4733.6162109375 3384.314453125 5303.234375 7418.408203125
          6603.37451171875 3751.96484375 2419.13427734375 2628.9013671875 2822.43505859375 2692.25634765625
          2552.49365234375 2404.29443359375 2426.84375 2456.073974609375 2369.454345703125 2407.31982421875
          3530.316162109375 5084.93017578125 4536.2470703125 3048.77734375 2901.39453125 3571.6630859375
          3166.575439453125 2450.954345703125 2368.73486328125 2435.560546875 2431.85693359375 2409.892578125
          2421.404296875 2422.466796875 2423.691650390625 2428.172607421875 2433.85205078125 2438.38037109375
          2438.027587890625 2433.546875 2427.36181640625 2423.082275390625 2420.414306640625 2418.976806640625
          2418.401611328125 2418.365966796875 2418.5966796875 2418.93408203125 2419.04296875 2418.936279296875
          2418.86181640625 2419.396484375 2420.884033203125 5515.84619140625 2424.048828125
        </DataArray>
        <DataArray type="Float32" Name="T" format="ascii" RangeMin="-52.53211975097656" RangeMax="18.03521728515625">
          -18.875885009765625 -19.02789306640625 -18.368255615234375 -17.003143310546875 -14.96051025390625 -12.436309814453125
          -9.619873046875 -6.8203125 -4.356781005859375 -2.534942626953125 -1.622711181640625 -1.74749755859375
          -2.900360107421875 -4.941375732421875 -7.630157470703125 -10.63531494140625 -13.5811767578125 -16.0767822265625
          -17.87237548828125 -29.590606689453125 -27.339569091796875 -22.5460205078125 -15.232635498046875 -9.087799072265625
          -6.346282958984375 -5.693634033203125 -5.3660888671875 -4.233184814453125 -1.080718994140625 1.8408203125
          1.5484619140625 -1.424102783203125 -3.590484619140625 -5.24310302734375 -10.304595947265625 -18.99725341796875
          -28.21624755859375 -32.411865234375 -41.803314208984375 -37.265167236328125 -21.525390625 -10.564117431640625
          -5.923187255859375 -0.0233154296875 -1.752593994140625 -1.018707275390625 16.07745361328125 9.64617919921875
          11.073699951171875 2.409027099609375 -1.230438232421875 -1.5670166015625 -8.9178466796875 -18.42181396484375
          -21.582366943359375 -22.97222900390625 -46.0511474609375 -36.66571044921875 -22.282867431640625 -17.94366455078125
          -0.03314208984375 6.06292724609375 1.263824462890625 -2.399688720703125 -4.911529541015625 -8.36151123046875
          -1.979400634765625 -4.20111083984375 13.868408203125 2.238525390625 -0.47930908203125 -3.099761962890625
          -10.698516845703125 -23.230499267578125 -22.52252197265625 -52.53211975097656 -23.555450439453125 -22.55718994140625
          -15.50286865234375 -10.679107666015625 -6.856353759765625 1.2786865234375 -0.729827880859375 -8.843353271484375
          -13.12005615234375 -15.01397705078125 -9.031402587890625 4.383636474609375 12.772491455078125 2.633209228515625
          -0.452423095703125 -8.162353515625 -16.95452880859375 -23.18231201171875 -25.5389404296875 -20.07220458984375
          -11.871826171875 -9.12310791015625 -5.62860107421875 -2.84503173828125 1.02374267578125 -0.19183349609375
          -8.362030029296875 -18.899505615234375 -20.056304931640625 -8.415130615234375 -2.448944091796875 10.063568115234375
          3.771087646484375 1.132720947265625 -3.06756591796875 -2.386627197265625 -11.121673583984375 -14.949066162109375
          -7.884063720703125 -3.078521728515625 -2.233062744140625 -3.6473388671875 0.311553955078125 8.52093505859375
          18.03521728515625 -0.407745361328125 -4.52276611328125 -24.71466064453125 -14.49700927734375 -5.077484130859375
          0.35296630859375 0.464141845703125 1.043243408203125 1.972869873046875 -0.578765869140625 -6.192901611328125
          -6.733306884765625 -0.665618896484375 -1.249725341796875 -1.16802978515625 -1.71136474609375 -4.60626220703125
          -7.12896728515625 -8.00933837890625 -10.742950439453125 -13.616790771484375 -16.21929931640625 -16.377349853515625
          -12.685546875 -6.019012451171875 -0.923065185546875 0.166290283203125 -0.131561279296875 0.365264892578125
          0.893035888671875 0.55108642578125 -0.685333251953125 -1.025360107421875 -1.555450439453125 -2.227264404296875
          -2.955596923828125 -3.649993896484375 -4.204132080078125 -4.557708740234375 -4.6964111328125 -4.62713623046875
          -4.3775634765625 -3.9749755859375 -3.435089111328125 -2.793975830078125 -2.12249755859375 -1.50115966796875
          -1.005859375 -0.685577392578125 -0.57562255859375 -10.579561233520508 -2.666142463684082
        </DataArray>
        <DataArray type="Float32" Name="THM" format="ascii" RangeMin="-52.50804138183594" RangeMax="24.817535400390625">
          -16.880218505859375 -16.805755615234375 -15.77581787109375 -13.929718017578125 -11.405975341796875 -8.562835693359375
          -5.683868408203125 -3.1107177734375 -1.0902099609375 0.177825927734375 0.57086181640625 0.06024169921875
          -1.3082275390625 -3.406280517578125 -6.02911376953125 -8.9078369140625 -11.730682373046875 -14.1788330078125
          -15.964813232421875 -28.6920166015625 -26.14117431640625 -20.703704833984375 -11.8145751953125 -4.637176513671875
          -0.97991943359375 0.532989501953125 0.540924072265625 1.803619384765625 5.566436767578125 8.815673828125
          8.00762939453125 3.8997802734375 0.590728759765625 -2.258270263671875 -7.0118408203125 -16.452056884765625
          -27.23309326171875 -31.82122802734375 -41.72479248046875 -36.7247314453125 -19.28619384765625 -6.2452392578125
          -2.2645263671875 5.338226318359375 5.93927001953125 6.454010009765625 18.10687255859375 11.77667236328125
          17.604217529296875 10.03326416015625 6.28692626953125 5.848297119140625 -4.544769287109375 -16.52777099609375
          -19.376922607421875 -21.90826416015625 -45.975921630859375 -36.423828125 -20.61962890625 -15.885009765625
          2.498382568359375 9.42388916015625 8.18438720703125 4.701690673828125 1.927276611328125 -3.194610595703125
          1.767547607421875 -0.29681396484375 16.858612060546875 10.47943115234375 7.962249755859375 4.19256591796875
          -6.187591552734375 -21.149627685546875 -21.460052490234375 -52.50804138183594 -22.047393798828125 -20.97418212890625
          -12.629119873046875 -6.643768310546875 -2.125091552734375 9.96746826171875 6.900146484375 -4.265869140625
          -9.336273193359375 -11.992645263671875 -5.851470947265625 7.483612060546875 24.817535400390625 11.210540771484375
          8.188323974609375 -4.035675048828125 -14.36407470703125 -21.75567626953125 -24.52716064453125 -18.16851806640625
          -8.296295166015625 -4.73193359375 -0.096405029296875 4.792938232421875 8.83026123046875 5.47332763671875
          -5.0169677734375 -17.384429931640625 -17.7916259765625 -3.9388427734375 1.58984375 17.28009033203125
          12.0438232421875 8.67327880859375 3.598663330078125 0.539794921875 -7.50537109375 -12.1583251953125
          -3.6568603515625 3.73028564453125 4.029632568359375 3.09539794921875 8.884307861328125 14.23309326171875
          20.774444580078125 5.144744873046875 -0.7193603515625 -23.115936279296875 -12.264556884765625 -2.28228759765625
          7.200408935546875 8.101654052734375 9.712249755859375 10.32275390625 7.61956787109375 -2.107757568359375
          -2.345184326171875 7.1180419921875 6.0115966796875 6.676361083984375 5.6689453125 1.796112060546875
          -1.5074462890625 -2.861419677734375 -6.47076416015625 -10.219635009765625 -13.3116455078125 -13.690399169921875
          -8.640869140625 0.03314208984375 6.87890625 8.574951171875 8.21893310546875 8.5845947265625
          9.10626220703125 8.76416015625 6.90966796875 6.349517822265625 5.591644287109375 4.708526611328125
          3.785888671875 2.918731689453125 2.202056884765625 1.720794677734375 1.536529541015625 1.677032470703125
          2.129852294921875 2.843170166015625 3.733062744140625 4.694854736328125 5.617401123046875 6.397918701171875
          6.9544677734375 7.234283447265625 7.216339111328125 -8.103261947631836 4.432723045349121
        </DataArray>
        <DataArray type="Float32" Name="MU" format="ascii" RangeMin="-5572.6015625" RangeMax="4068.533447265625">
          3841.111572265625 4068.533447265625 4066.650634765625 3822.797119140625 3374.530029296875 2815.130126953125
          2281.459716796875 1905.11572265625 1763.617919921875 1855.822509765625 2105.847900390625 2398.337646484375
          2624.3798828125 2721.658447265625 2703.98681640625 2665.76904296875 2745.25048828125 3028.106689453125
          3449.435302734375 -1905.8990478515625 -262.5462951660156 2333.089599609375 3549.14013671875 3091.572509765625
          2119.624755859375 1469.9105224609375 1265.2783203125 1290.4156494140625 1453.947021484375 1381.4306640625
          1390.2518310546875 1588.7982177734375 1806.5802001953125 1411.508056640625 1000.7251586914062 987.2586059570312
          585.1278076171875 -1130.96630859375 -1517.695556640625 -221.56280517578125 1671.9114990234375 2428.056884765625
          2780.9130859375 1958.8143310546875 1432.672119140625 509.551025390625 -325.2493591308594 739.4138793945312
          744.9155883789062 775.342041015625 995.1863403320312 536.425537109375 383.66180419921875 2614.03955078125
          821.0894775390625 -2326.51025390625 -954.9296875 -5572.6015625 -2305.950927734375 1329.797607421875
          1239.123779296875 1599.140869140625 1440.8441162109375 1762.7811279296875 875.85400390625 -369.220458984375
          2469.4765625 1966.7958984375 46.0296630859375 795.50732421875 936.010498046875 -369.19464111328125
          666.221435546875 1529.43310546875 -943.0516967773438 -1833.71533203125 -1051.67626953125 -347.5833740234375
          1431.481689453125 1525.17041015625 984.2359619140625 733.6461791992188 24.225955963134766 -27.197566986083984
          1359.3028564453125 2130.2548828125 2016.655517578125 369.489501953125 -1600.85302734375 285.0775451660156
          -199.14962768554688 1066.2730712890625 2578.362060546875 -2704.6865234375 319.344482421875 1273.2095947265625
          -253.5899658203125 801.247314453125 1350.6805419921875 943.0140380859375 693.2946166992188 2273.279296875
          1958.88525390625 1466.2999267578125 -999.6683349609375 582.1908569335938 886.8370361328125 368.9423522949219
          -372.464599609375 -743.9656982421875 69.58968353271484 1557.3978271484375 1752.52099609375 1742.31005859375
          1569.359375 729.5462646484375 1227.5576171875 719.5487060546875 639.927978515625 521.1189575195312
          -206.9320068359375 -291.684326171875 -532.8801879882812 2280.6455078125 904.16943359375 351.2247314453125
          765.97509765625 883.099853515625 -180.5278778076172 -367.1690673828125 -333.9892578125 453.5457458496094