<?xml version="1.0"?>
<VTKFile type="UnstructuredGrid" version="0.1" byte_order="LittleEndian" header_type="UInt32" compressor="vtkZLibDataCompressor">
  <UnstructuredGrid>
    <Piece NumberOfPoints="173" NumberOfCells="190">
      <PointData>
        <DataArray type="Float32" Name="XLAT" format="ascii" RangeMin="-79.09431457519531" RangeMax="83.4140853881836">
          -36.434967041015625 -35.26168441772461 -33.08713150024414 -30.20655059814453 -26.97258186340332 -23.742050170898438
          -20.84287452697754 -18.553916931152344 -17.08961296081543 -16.585935592651367 -17.08961296081543 -18.553916931152344
          -20.842872619628906 -23.742053985595703 -26.97257423400879 -30.20655059814453 -33.087127685546875 -35.26167678833008
          -36.434967041015625 -55.956668853759766 -51.33585739135742 -43.662967681884766 -34.554622650146484 -25.11931037902832
          -16.129915237426758 -8.222798347473145 -1.9903244972229004 2.0243630409240723 3.414057970046997 2.024358034133911
          -1.9903210401535034 -8.222794532775879 -16.129924774169922 -25.11929702758789 -34.55461502075195 -43.662960052490234
          -51.33584976196289 -55.956668853759766 -74.44549560546875 -62.8924674987793 -48.732810974121094 -34.25332260131836
          -20.135629653930664 -6.8634819984436035 4.991708278656006 14.650642395019531 21.115882873535156 23.414058685302734
          21.115869522094727 14.650650978088379 4.991714954376221 -6.8634934425354 -20.135608673095703 -34.2533073425293
          -48.7327995300293 -62.892452239990234 -74.44549560546875 -79.09431457519531 -63.14070510864258 -46.23723602294922
          -29.381717681884766 -12.853670120239258 3.05084228515625 17.85150146484375 30.668725967407227 39.92125701904297
          43.414058685302734 39.92124557495117 30.66873550415039 17.851512908935547 3.050827741622925 -12.853643417358398
          -29.38170051574707 -46.23722457885742 -63.140689849853516 -79.09431457519531 -61.89278030395508 -51.857933044433594
          -37.2769660949707 -21.05241584777832 -4.235024452209473 12.68136215209961 29.282487869262695 44.88612747192383
          57.75886154174805 63.41405487060547 57.75885009765625 44.886131286621094 29.28249740600586 12.68134593963623
          -4.234997272491455 -21.052400588989258 -37.27695846557617 -51.857913970947266 -61.89278030395508 -42.51667404174805
          -35.87250518798828 -24.58701515197754 -10.631433486938477 4.799738883972168 21.060726165771484 37.78398513793945
          54.70705032348633 71.41814422607422 83.4140853881836 71.41812133789062 54.707061767578125 37.78399658203125
          21.060710906982422 4.799764633178711 -10.631420135498047 -24.587007522583008 -35.872493743896484 -42.51667404174805
          -22.83197021484375 -18.349164962768555 -10.154090881347656 0.7158156037330627 13.361971855163574 27.119108200073242
          41.47991180419922 55.92148208618164 69.32550048828125 76.58592987060547 69.32546997070312 55.92149353027344
          41.47991943359375 27.119094848632812 13.361992835998535 0.7158257961273193 -10.15408706665039 -18.349159240722656
          -22.83197021484375 -3.064091444015503 -0.3243042230606079 4.861444473266602 12.003402709960938 20.52749252319336
          29.82451057434082 39.20808410644531 47.76811599731445 54.143428802490234 56.585933685302734 54.14342498779297
          47.76811981201172 39.208091735839844 29.824501037597656 20.527507781982422 12.003410339355469 4.861447811126709
          -0.3242990970611572 -3.064091444015503 16.712594985961914 17.70819664001465 19.607032775878906 22.232275009155273
          25.335437774658203 28.61105728149414 31.713668823242188 34.28321838378906 35.98786926269531 36.585941314697266
          35.98786926269531 34.28321838378906 31.713668823242188 28.611055374145508 25.3354434967041 22.232276916503906
          19.60703468322754 17.70819854736328 16.712594985961914 -26.36594009399414 26.365938186645508
        </DataArray>
        <DataArray type="Float32" Name="XLONG" format="ascii" RangeMin="-179.48455810546875" RangeMax="179.36892700195312">
          8.371694564819336 4.598247051239014 1.636704444885254 -0.19567124545574188 -0.7890507578849792 -0.1893191784620285
          1.458791732788086 3.947890043258667 7.02587366104126 10.40759563446045 13.789331436157227 16.86730194091797
          19.356399536132812 21.0045108795166 21.6042423248291 21.010862350463867 19.17848777770996 16.216943740844727
          12.443497657775879 1.9541033506393433 -11.982322692871094 -20.156938552856445 -23.3697509765625 -22.982751846313477
          -19.89471435546875 -14.612192153930664 -7.488495826721191 1.058406114578247 10.407608985900879 19.756799697875977
          28.303688049316406 35.42738342285156 40.70991897583008 43.797943115234375 44.184940338134766 40.972129821777344
          32.79752731323242 18.861101150512695 -17.639755249023438 -42.73664093017578 -48.295867919921875 -47.666099548339844
          -43.994873046875 -38.006710052490234 -29.664302825927734 -18.691835403442383 -5.056703090667725 10.407608985900879
          25.87192153930664 39.507015228271484 50.4794807434082 58.8218994140625 64.81006622314453 68.48129272460938
          69.11106872558594 63.55183410644531 38.45497512817383 -114.75559997558594 -87.73682403564453 -77.85042572021484
          -70.55171203613281 -63.44577407836914 -55.40792465209961 -45.33025360107422 -31.738794326782227 -13.035893440246582
          10.407608985900879 33.85112762451172 52.55397415161133 66.14543914794922 76.22313690185547 84.26097106933594
          91.36691284179688 98.6656265258789 108.55200958251953 135.57078552246094 -149.14385986328125 -119.1825180053711
          -101.98352813720703 -90.6988525390625 -81.71620178222656 -73.12652587890625 -63.29389953613281 -49.69354248046875
          -27.0836238861084 10.407623291015625 47.89887237548828 70.50874328613281 84.10909271240234 93.94172668457031
          102.53137969970703 111.5140380859375 122.79872131347656 139.99766540527344 169.9590301513672 -157.4794921875
          -136.0926513671875 -120.1026840209961 -108.47928619384766 -99.57796478271484 -92.13240051269531 -85.09880828857422
          -77.01148223876953 -62.82917022705078 10.407705307006836 83.64440155029297 97.8266830444336 105.91400909423828
          112.94760131835938 120.39317321777344 129.29443359375 140.91786193847656 156.90782165527344 178.294677734375
          -161.72935485839844 -147.0028076171875 -134.66311645507812 -125.03866577148438 -117.90226745605469 -113.04633331298828
          -110.72171783447266 -112.48270416259766 -124.80217742919922 -169.59246826171875 145.61732482910156 133.29794311523438
          131.53692626953125 133.86154174804688 138.71746826171875 145.85385131835938 155.47828674316406 167.81797790527344
          -177.45547485351562 -164.86500549316406 -155.8251953125 -147.92674255371094 -141.679931640625 -137.44650268554688
          -135.62660217285156 -136.89456176757812 -142.40428161621094 -153.5015106201172 -169.59242248535156 174.3166961669922
          163.21949768066406 157.7097625732422 156.44178771972656 158.26170349121094 162.49513244628906 168.7418975830078
          176.640380859375 -174.31980895996094 -167.88230895996094 -164.615234375 -161.79786682128906 -159.7002410888672
          -158.55374145507812 -158.5375213623047 -159.75291442871094 -162.17576599121094 -165.5966033935547 -169.59242248535156
          -173.5882110595703 -177.00904846191406 -179.43190002441406 179.3527069091797 179.36892700195312 -179.48455810546875
          -177.38693237304688 -174.56954956054688 -171.302490234375 10.40759563446045 -169.59239196777344
        </DataArray>
        <DataArray type="Float32" Name="LU_INDEX" format="ascii" RangeMin="1" RangeMax="18">
          17 17 17 17 17 17
          17 17 17 17 9 9
          7 7 7 7 17 17
          17 15 17 17 17 17
          17 17 17 17 2 2
          2 9 17 17 17 17
          17 17 15 15 17 17
          9 17 17 17 16 16
          16 16 17 17 17 17
          17 15 15 15 17 17
          17 2 2 17 17 17
          12 16 16 17 17 17
          17 17 15 15 17 17
          17 17 17 17 17 17
          17 1 12 10 12 17
          17 17 17 17 17 17
          17 17 17 17 17 4
          18 17 15 17 5 10
          5 17 17 7 17 17
          17 17 17 17 17 17
          10 1 18 15 18 3
          17 17 17 17 17 17
          17 17 17 17 17 17
          17 17 17 17 17 17
          17 17 17 17 17 17
          17 17 17 17 17 17
          17 17 17 17 17 17
          17 17 17 17 17 17
          17 17 17 14.052631378173828 17
        </DataArray>
        <DataArray type="Float32" Name="VAR_SSO" format="ascii" RangeMin="0" RangeMax="87000.1875">
          0 0 0 0 0 0
          29.076244354248047 0 0 173.46023559570312 7280.64453125 1713.4564208984375
          1692.744140625 1739.8660888671875 7091.27685546875 7226.77197265625 4823.7236328125 0
          0 4.797351837158203 0 25.716461181640625 0 0.2496993988752365
          0 2.085860013961792 213.5469970703125 491.6503601074219 4837.2939453125 1371.9881591796875
          9234.8681640625 8803.390625 4278.06494140625 1774.9337158203125 0 33.657005310058594
          0 0 0 279.79180908203125 83.99690246582031 788.7703247070312
          4536.09375 1513.4990234375 0 856.877685546875 1189.1771240234375 1680.3717041015625
          2123.79736328125 16667.064453125 1422.168701171875 3.771632671356201 227.49847412109375 2.434486150741577
          144.08908081054688 0 0 0 0 14436.033203125
          21332.263671875 20417.845703125 3575.385498046875 0 108.07470703125 4956.90673828125
          17120.349609375 26783.99609375 17547.533203125 1307.7265625 1504.5396728515625 0
          0 0 0 0 0 0
          0 0 22447.330078125 15440.55859375 0.29663607478141785 370.9743347167969
          81.44950103759766 1810.5963134765625 818.0090942382812 18975.755859375 58918.20703125 9100.5390625
          4607.1787109375 210.56690979003906 118.09986114501953 0 39.24305725097656 0
          0.005383153911679983 1.0616005659103394 0 152.39044189453125 12764.6376953125 1837.3494873046875
          2981.228271484375 0 0 59.46195602416992 22246.48046875 49258.73046875
          26117.66796875 10170.11328125 4491.7734375 968.1251220703125 1884.122314453125 6880.87109375
          2.9041454792022705 56.10591506958008 37.81855010986328 0 0.5218933820724487 11658.384765625
          25372.888671875 34467.859375 87000.1875 0 9830.3427734375 10086.8408203125
          7919.501953125 1020.3629760742188 10.457804679870605 11677.62890625 3625.6650390625 496.5499572753906
          303.1634826660156 0.001306430553086102 0.03374908119440079 0 0 0
          0 85.04072570800781 1334.7139892578125 5023.85107421875 1058.7508544921875 2133.051025390625
          2624.426025390625 212.7364501953125 0 0.0001379120076308027 4.88595724105835 1.1568914651870728
          0.013057511299848557 0.00029291154351085424 0.0028214429039508104 0 0 3725.49609375
          0 0 0 0 0 0
          0 0 0 0.0014908683951944113 0 0
          0 0 0 1672.158935546875 196.0789794921875
        </DataArray>
        <DataArray type="Float32" Name="U" format="ascii" RangeMin="0" RangeMax="0">
          0 0 0 0 0 0
          0 0 0 0 0 0
          0 0 0 0 0 0
          0 0 0 0 0 0
          0 0 0 0 0 0
          0 0 0 0 0 0
          0 0 0 0 0 0
          0 0 0 0 0 0
          0 0 0 0 0 0
          0 0 0 0 0 0
          0 0 0 0 0 0
          0 0 0 0 0 0
          0 0 0 0 0 0
          0 0 0 0 0 0
          0 0 0 0 0 0
          0 0 0 0 0 0
          0 0 0 0 0 0
          0 0 0 0 0 0
          0 0 0 0 0 0
          0 0 0 0 0 0
          0 0 0 0 0 0
          0 0 0 0 0 0
          0 0 0 0 0 0
          0 0 0 0 0 0
          0 0 0 0 0 0
          0 0 0 0 0 0
          0 0 0 0 0 0
          0 0 0 0 0 0
          0 0 0 0 0
        </DataArray>
        <DataArray type="Float32" Name="V" format="ascii" RangeMin="0" RangeMax="0">
          0 0 0 0 0 0
          0 0 0 0 0 0
          0 0 0 0 0 0
          0 0 0 0 0 0
          0 0 0 0 0 0
          0 0 0 0 0 0
          0 0 0 0 0 0
          0 0 0 0 0 0
          0 0 0 0 0 0
          0 0 0 0 0 0
          0 0 0 0 0 0
          0 0 0 0 0 0
          0 0 0 0 0 0
          0 0 0 0 0 0
          0 0 0 0 0 0
          0 0 0 0 0 0
          0 0 0 0 0 0
          0 0 0 0 0 0
          0 0 0 0 0 0
          0 0 0 0 0 0
          0 0 0 0 0 0
          0 0 0 0 0 0
          0 0 0 0 0 0
          0 0 0 0 0 0
          0 0 0 0 0 0
          0 0 0 0 0 0
          0 0 0 0 0 0
          0 0 0 0 0 0
          0 0 0 0 0
        </DataArray>
        <DataArray type="Float32" Name="W" format="ascii" RangeMin="1" RangeMax="1">
          1 1 1 1 1 1
          1 1 1 1 1 1
          1 1 1 1 1 1
          1 1 1 1 1 1
          1 1 1 1 1 1
          1 1 1 1 1 1
          1 1 1 1 1 1
          1 1 1 1 1 1
          1 1 1 1 1 1
          1 1 1 1 1 1
          1 1 1 1 1 1
          1 1 1 1 1 1
          1 1 1 1 1 1
          1 1 1 1 1 1
          1 1 1 1 1 1
          1 1 1 1 1 1
          1 1 1 1 1 1
          1 1 1 1 1 1
          1 1 1 1 1 1
          1 1 1 1 1 1
          1 1 1 1 1 1
          1 1 1 1 1 1
          1 1 1 1 1 1
          1 1 1 1 1 1
          1 1 1 1 1 1
          1 1 1 1 1 1
          1 1 1 1 1 1
          1 1 1 1 1 1
          1 1 1 1 1
        </DataArray>
        <DataArray type="Float32" Name="PH" format="ascii" RangeMin="-415.949951171875" RangeMax="226.1751251220703">
          -32.43196105957031 -31.595317840576172 -23.91695785522461 -10.17466926574707 7.467502593994141 26.25354766845703
          43.798458099365234 58.377933502197266 68.86920166015625 74.66048431396484 75.54122161865234 71.67112731933594
          63.389137268066406 50.9881591796875 35.07271957397461 16.970903396606445 -1.0080525875091553 -16.22613525390625
          -26.97899627685547 -188.80999755859375 -148.76812744140625 -70.64968872070312 14.790164947509766 65.28976440429688
          88.01891326904297 97.59711456298828 92.72853088378906 95.96005249023438 112.78495025634766 128.15052795410156
          119.50080871582031 91.44078063964844 80.28262329101562 67.62616729736328 23.82530975341797 -53.54772186279297
          -149.45089721679688 -211.40890502929688 -335.918701171875 -242.18502807617188 -66.48764038085938 40.84434509277344
          69.52798461914062 129.93017578125 133.7790069580078 134.0640869140625 200.4623565673828 166.276611328125
          200.99803161621094 131.01287841796875 122.79638671875 134.78578186035156 42.23320007324219 -31.58321189880371
          -74.94627380371094 -172.52484130859375 -328.1878967285156 -300.3830871582031 -126.13569641113281 -43.5712890625
          102.38854217529297 146.76129150390625 127.675537109375 135.88467407226562 106.99551391601562 44.95629119873047
          88.01405334472656 68.37014770507812 192.4335174560547 138.61293029785156 147.88458251953125 106.56996154785156
          32.30880355834961 -83.50247192382812 -142.85215759277344 -415.949951171875 -128.40005493164062 -97.68222045898438
          -26.845165252685547 38.48828887939453 44.312171936035156 163.27096557617188 134.9253692626953 35.723880767822266
          -3.7583844661712646 -14.234816551208496 18.594146728515625 91.13483428955078 226.1751251220703 144.34890747070312
          139.71258544921875 51.29291534423828 -18.685714721679688 -142.12277221679688 -148.06103515625 -50.227928161621094
          -12.787361145019531 59.148345947265625 91.06939697265625 121.89033508300781 145.08853149414062 123.71260070800781
          35.91362762451172 -70.67316436767578 -101.14082336425781 38.53884506225586 55.32898712158203 166.29391479492188
          144.4446258544922 133.69107055664062 105.38508605957031 86.91163635253906 35.64350509643555 -11.055377960205078
          58.506195068359375 122.1363296508789 121.2789306640625 106.49995422363281 154.84625244140625 182.5094451904297
          224.29638671875 96.65292358398438 68.00712585449219 -113.64260864257812 -27.563312530517578 44.309783935546875
          113.51039123535156 149.8385009765625 157.9664764404297 155.14920043945312 133.82589721679688 60.3233642578125
          70.30690002441406 139.13909912109375 125.43621826171875 127.36827850341797 126.62321472167969 99.3800048828125
          75.49100494384766 56.57037353515625 16.6256046295166 -25.196365356445312 -17.300018310546875 -22.092449188232422
          -2.5765748023986816 78.5770034790039 146.63961791992188 159.17941284179688 153.93251037597656 154.75767517089844
          150.92388916015625 146.10116577148438 143.61944580078125 140.49639892578125 135.8061981201172 129.7203369140625
          122.80519104003906 116.04104614257812 110.72024536132812 108.10848999023438 108.8662109375 112.64888000488281
          118.31991577148438 124.62950897216797 130.6685028076172 135.8887939453125 140.028564453125 143.01763916015625
          144.8760528564453 145.63876342773438 145.26707458496094 23.72254180908203 129.3245849609375
        </DataArray>
        <DataArray type="Float32" Name="PHB" format="ascii" RangeMin="2294.1181640625" RangeMax="20361.91796875">
          3325.998046875 3676.02880859375 4080.6484375 4287.978515625 4286.6552734375 4151.51025390625
          3998.4775390625 4058.10546875 4625.3125 5859.509765625 7451.1181640625 8812.0390625
          9449.716796875 9238.7685546875 8270.69140625 6778.392578125 5181.7802734375 3941.59423828125
          3326.751953125 4534.50537109375 2637.265869140625 2294.1181640625 2420.3828125 2464.2685546875
          2405.662109375 2377.787109375 2645.14453125 3966.9345703125 6003.64208984375 8728.1923828125
          10989.2109375 10198.734375 7385.021484375 5653.44482421875 4270.556640625 2834.58447265625
          3375.41650390625 4397.6806640625 13282.7080078125 2907.296630859375 2419.13330078125 4098.3115234375
          6305.7109375 4614.6650390625 2419.13330078125 2816.896484375 5182.736328125 7207.048828125
          8296.44140625 8180.7578125 4726.34765625 2419.402587890625 2419.20068359375 2419.13330078125
          2433.0068359375 9229.703125 16809.46875 12402.421875 3107.468505859375 2769.03369140625
          5080.04296875 7577.76220703125 5001.625 2419.13330078125 2419.74462890625 3626.83544921875
          5999.97802734375 8844.482421875 9598.7490234375 5086.90234375 2492.004150390625 2455.03125
          2419.13330078125 2419.13330078125 10275.7490234375 20361.91796875 4245.81689453125 2625.642822265625
          2699.279541015625 3262.73388671875 4065.048095703125 3267.83935546875 2419.13330078125 2419.13330078125
          3247.672607421875 3886.5908203125 6069.65673828125 12092.0009765625 12317.708984375 5359.9169921875
          2551.29296875 3400.905029296875 3382.417236328125 4740.46728515625 7416.54296875 2419.13330078125
          2419.13330078125 2419.14501953125 2419.13330078125 2420.50390625 4049.83984375 6619.822265625
          6453.7060546875 4847.4892578125 3135.68896484375 4435.7548828125 11650.9501953125 14239.619140625
          6733.314453125 2942.332763671875 3475.37939453125 3706.87158203125 2464.350830078125 3261.625732421875
          2419.718994140625 2420.694091796875 2419.1435546875 2419.13330078125 2419.15869140625 5396.486328125
          10181.6953125 8896.556640625 4733.6162109375 3384.314453125 5303.234375 7418.408203125
          6603.37451171875 3751.96484375 2419.13427734375 2628.9013671875 2822.43505859375 2692.25634765625
          2552.49365234375 2404.29443359375 2426.84375 2456.073974609375 2369.454345703125 2407.31982421875
          3530.316162109375 5084.93017578125 4536.2470703125 3048.77734375 2901.39453125 3571.6630859375
          3166.575439453125 2450.954345703125 2368.73486328125 2435.560546875 2431.85693359375 2409.892578125
          2421.404296875 2422.466796875 2423.691650390625 2428.172607421875 2433.85205078125 2438.38037109375
          2438.027587890625 2433.546875 2427.36181640625 2423.082275390625 2420.414306640625 2418.976806640625
          2418.401611328125 2418.365966796875 2418.5966796875 2418.93408203125 2419.04296875 2418.936279296875
          2418.86181640625 2419.396484375 2420.884033203125 5515.84619140625 2424.048828125
        </DataArray>
        <DataArray type="Float32" Name="T" format="ascii" RangeMin="-52.90644836425781" RangeMax="18.380126953125">
          -19.355621337890625 -19.485443115234375 -18.694122314453125 -17.16693115234375 -14.739044189453125 -12.507568359375
          -9.767059326171875 -7.00372314453125 -4.41973876953125 -2.33837890625 -1.31390380859375 -1.40582275390625
          -2.525726318359375 -4.47540283203125 -7.167449951171875 -10.386199951171875 -13.61895751953125 -16.31182861328125
          -18.272430419921875 -28.191864013671875 -27.688323974609375 -23.047149658203125 -14.732177734375 -9.1407470703125
          -6.545684814453125 -5.546722412109375 -5.38861083984375 -4.369384765625 -1.510833740234375 2.03466796875
          1.994140625 -1.47149658203125 -3.436279296875 -4.998931884765625 -10.919708251953125 -18.47418212890625
          -28.29718017578125 -33.59027099609375 -41.57452392578125 -37.57037353515625 -21.833282470703125 -10.57379150390625
          -5.77252197265625 0.168426513671875 -1.69677734375 -1.12371826171875 16.919952392578125 9.83636474609375
          11.375457763671875 2.443115234375 -1.393157958984375 -1.315521240234375 -8.98089599609375 -18.541748046875
          -21.4150390625 -21.940185546875 -45.99723815917969 -36.70318603515625 -22.16851806640625 -18.100372314453125
          0.12921142578125 6.308685302734375 1.469024658203125 -2.2786865234375 -4.8431396484375 -8.521575927734375
          -1.724029541015625 -4.46551513671875 14.26654052734375 1.5892333984375 -0.42510986328125 -3.25213623046875
          -10.455078125 -23.214752197265625 -22.0045166015625 -52.90644836425781 -23.27410888671875 -22.619842529296875
          -15.536346435546875 -10.671600341796875 -6.907684326171875 1.44171142578125 -0.684478759765625 -8.72576904296875
          -12.900909423828125 -15.03643798828125 -8.879547119140625 4.503662109375 12.99603271484375 2.439971923828125
          -0.4580078125 -8.29083251953125 -17.03973388671875 -24.34271240234375 -25.3477783203125 -20.108123779296875
          -12.247650146484375 -9.1380615234375 -5.50848388671875 -2.807586669921875 0.985748291015625 -0.0341796875
          -8.384246826171875 -19.10479736328125 -20.238311767578125 -8.357452392578125 -3.1617431640625 8.908294677734375
          3.43572998046875 1.156951904296875 -3.21826171875 -3.289154052734375 -10.922760009765625 -14.8934326171875
          -7.90087890625 -3.122344970703125 -2.1439208984375 -3.594451904296875 0.762786865234375 8.60302734375
          18.380126953125 -0.245513916015625 -5.054473876953125 -24.77789306640625 -15.04388427734375 -5.68402099609375
          0.48114013671875 0.40679931640625 1.810577392578125 1.994415283203125 -0.580780029296875 -6.2943115234375
          -6.723846435546875 -0.486053466796875 -1.437835693359375 -1.3780517578125 -1.469696044921875 -4.81744384765625
          -7.228851318359375 -8.468841552734375 -10.8956298828125 -13.6837158203125 -15.882080078125 -16.499542236328125
          -12.80694580078125 -6.3067626953125 -0.597198486328125 0.80511474609375 0.63250732421875 0.591339111328125
          0.6435546875 0.56781005859375 -0.75390625 -1.116455078125 -1.57574462890625 -2.16070556640625
          -2.927490234375 -3.734893798828125 -4.346771240234375 -4.680389404296875 -4.813751220703125 -4.666961669921875
          -4.369354248046875 -3.967132568359375 -3.4122314453125 -2.667266845703125 -1.921661376953125 -1.278900146484375
          -0.8648681640625 -0.6204833984375 -0.60247802734375 -10.576597213745117 -2.6569182872772217
        </DataArray>
        <DataArray type="Float32" Name="THM" format="ascii" RangeMin="-52.88594055175781" RangeMax="24.94140625">
          -17.623046875 -17.569091796875 -16.3875732421875 -14.28570556640625 -11.262359619140625 -8.62274169921875
          -5.72705078125 -3.15911865234375 -1.14178466796875 0.1455078125 0.591064453125 0.177276611328125
          -1.0504150390625 -3.010467529296875 -5.575897216796875 -8.544677734375 -11.6170654296875 -14.408203125
          -16.5167236328125 -27.215728759765625 -26.56256103515625 -21.372772216796875 -11.23651123046875 -4.804107666015625
          -1.305999755859375 0.7440185546875 0.409942626953125 1.5230712890625 5.432342529296875 9.03741455078125
          8.47686767578125 3.835693359375 0.41326904296875 -2.402679443359375 -7.454376220703125 -15.752838134765625
          -27.441650390625 -33.13067626953125 -41.50091552734375 -37.063079833984375 -19.686492919921875 -6.221160888671875
          -2.118408203125 5.52655029296875 5.967254638671875 6.382965087890625 18.773040771484375 11.878997802734375
          17.936431884765625 10.084991455078125 6.023345947265625 6.057464599609375 -4.5574951171875 -16.68316650390625
          -19.216522216796875 -20.85150146484375 -45.92405700683594 -36.455352783203125 -20.506195068359375 -16.108306884765625
          2.6507568359375 9.65838623046875 8.397308349609375 4.749267578125 1.916473388671875 -3.454132080078125
          2.029541015625 -0.58477783203125 17.217926025390625 9.86865234375 7.856201171875 4.093170166015625
          -5.88690185546875 -21.11260986328125 -20.947723388671875 -52.88594055175781 -21.753997802734375 -21.072265625
          -12.711883544921875 -6.66937255859375 -2.15093994140625 10.027191162109375 6.8612060546875 -4.141632080078125
          -9.091827392578125 -12.031768798828125 -5.699310302734375 7.581268310546875 24.94140625 10.860107421875
          8.093475341796875 -4.17205810546875 -14.512542724609375 -22.918792724609375 -24.329681396484375 -18.240203857421875
          -8.379638671875 -4.813446044921875 -0.03265380859375 4.785614013671875 8.82257080078125 5.61688232421875
          -5.068603515625 -17.619964599609375 -17.95751953125 -3.87640380859375 0.699005126953125 16.097198486328125
          11.52642822265625 8.339111328125 3.50543212890625 -0.234130859375 -7.32879638671875 -12.18402099609375
          -3.781524658203125 3.628997802734375 4.088043212890625 3.071624755859375 9.459716796875 14.3458251953125
          20.96697998046875 5.426116943359375 -1.233184814453125 -23.181976318359375 -12.76263427734375 -2.83746337890625
          7.332916259765625 7.91278076171875 10.712432861328125 10.076019287109375 7.713714599609375 -2.3192138671875
          -2.403350830078125 7.421905517578125 5.54864501953125 6.525482177734375 5.747344970703125 1.538909912109375
          -1.64471435546875 -3.25079345703125 -6.6485595703125 -10.332000732421875 -12.8641357421875 -13.925201416015625
          -8.731689453125 -0.33795166015625 7.167449951171875 9.456573486328125 9.179046630859375 8.8250732421875
          8.73321533203125 8.658355712890625 6.791595458984375 6.2882080078125 5.59808349609375 4.7685546875
          3.864349365234375 2.965545654296875 2.165313720703125 1.5697021484375 1.2821044921875 1.372833251953125
          1.8519287109375 2.6553955078125 3.6561279296875 4.700103759765625 5.647216796875 6.3963623046875
          6.891571044921875 7.115203857421875 7.075469970703125 -8.18884563446045 4.3502984046936035
        </DataArray>
        <DataArray type="Float32" Name="MU" format="ascii" RangeMin="-4789.26904296875" RangeMax="3778.468017578125">
          3778.468017578125 3776.5615234375 3615.27587890625 3337.884033203125 2983.712158203125 2592.877197265625
          2222.485595703125 1933.38232421875 1770.467529296875 1750.7178955078125 1857.703125 2048.375
          2269.901611328125 2475.4599609375 2647.154296875 2808.064208984375 3015.544921875 3302.8994140625
          3601.225830078125 -2042.71435546875 -302.6580505371094 2750.141357421875 3503.072021484375 2815.645751953125
          2041.397216796875 1541.6317138671875 1321.7457275390625 1293.20361328125 1403.665283203125 1399.0550537109375
          1246.2998046875 1230.943115234375 1737.86328125 2157.93896484375 1526.7454833984375 670.3201293945312
          231.1140594482422 -1112.9713134765625 -3196.67724609375 1044.6190185546875 2094.115234375 2340.010498046875
          2740.343017578125 1879.1141357421875 1294.927490234375 1012.0012817382812 -420.4459228515625 1242.913818359375
          873.7366943359375 312.1308288574219 757.5311889648438 1004.0596313476562 155.089111328125 2915.721923828125
          1293.0970458984375 -4789.26904296875 340.12005615234375 -4561.9169921875 -3054.628173828125 1388.598876953125
          1781.1063232421875 1399.38525390625 1233.1566162109375 1978.13134765625 1655.106689453125 222.36572265625
          1056.807373046875 1393.702880859375 905.5816040039062 -205.20257568359375 1020.9066162109375 -100.33926391601562
          541.0074462890625 1705.3746337890625 -1807.7454833984375 -2412.88818359375 -1815.1527099609375 -57.241668701171875
          266.811767578125 1894.721923828125 782.7320556640625 979.79345703125 357.47772216796875 437.5986328125
          726.494384765625 1485.583740234375 1662.4310302734375 -339.7653503417969 457.5970458984375 -247.984375
          254.904541015625 1063.6669921875 2855.130859375 -1901.62548828125 -1115.0333251953125 2450.3505859375
          -1914.2294921875 2157.898681640625 1378.6162109375 1039.05859375 360.90924072265625 2348.67041015625
          1871.5205078125 1078.515380859375 -579.2364501953125 1720.3394775390625 260.727294921875 644.7935791015625
          -554.7885131835938 -384.64227294921875 336.1009521484375 1256.50537109375 1961.67236328125 1565.392822265625
          1625.5645751953125 1721.0303955078125 964.3731079101562 663.0781860351562 483.8231201171875 866.6810913085938
          155.02203369140625 152.462158203125 304.83709716796875 975.7693481445312 867.9232177734375 604.73974609375
          585.3248291015625 1292.62060546875 -123.0244140625 166.50872802734375 10.230239868164062 160.68182373046875
          1226.1712646484375 306.13763427734375 417.3767395019531 243.8619384765625 489.9259948730469 1192.058349609375