<?xml version="1.0"?>
<VTKFile type="UnstructuredGrid" version="0.1" byte_order="LittleEndian" header_type="UInt32" compressor="vtkZLibDataCompressor">
  <UnstructuredGrid>
    <Piece NumberOfPoints="173" NumberOfCells="190">
      <PointData>
        <DataArray type="Float32" Name="XLAT" format="ascii" RangeMin="-79.09431457519531" RangeMax="83.4140853881836">
          -36.434967041015625 -35.26168441772461 -33.08713150024414 -30.20655059814453 -26.97258186340332 -23.742050170898438
          -20.84287452697754 -18.553916931152344 -17.08961296081543 -16.585935592651367 -17.08961296081543 -18.553916931152344
          -20.842872619628906 -23.742053985595703 -26.97257423400879 -30.20655059814453 -33.087127685546875 -35.26167678833008
          -36.434967041015625 -55.956668853759766 -51.33585739135742 -43.662967681884766 -34.554622650146484 -25.11931037902832
          -16.129915237426758 -8.222798347473145 -1.9903244972229004 2.0243630409240723 3.414057970046997 2.024358034133911
          -1.9903210401535034 -8.222794532775879 -16.129924774169922 -25.11929702758789 -34.55461502075195 -43.662960052490234
          -51.33584976196289 -55.956668853759766 -74.44549560546875 -62.8924674987793 -48.732810974121094 -34.25332260131836
          -20.135629653930664 -6.8634819984436035 4.991708278656006 14.650642395019531 21.115882873535156 23.414058685302734
          21.115869522094727 14.650650978088379 4.991714954376221 -6.8634934425354 -20.135608673095703 -34.2533073425293
          -48.7327995300293 -62.892452239990234 -74.44549560546875 -79.09431457519531 -63.14070510864258 -46.23723602294922
          -29.381717681884766 -12.853670120239258 3.05084228515625 17.85150146484375 30.668725967407227 39.92125701904297
          43.414058685302734 39.92124557495117 30.66873550415039 17.851512908935547 3.050827741622925 -12.853643417358398
          -29.38170051574707 -46.23722457885742 -63.140689849853516 -79.09431457519531 -61.89278030395508 -51.857933044433594
          -37.2769660949707 -21.05241584777832 -4.235024452209473 12.68136215209961 29.282487869262695 44.88612747192383
          57.75886154174805 63.41405487060547 57.75885009765625 44.886131286621094 29.28249740600586 12.68134593963623
          -4.234997272491455 -21.052400588989258 -37.27695846557617 -51.857913970947266 -61.89278030395508 -42.51667404174805
          -35.87250518798828 -24.58701515197754 -10.631433486938477 4.799738883972168 21.060726165771484 37.78398513793945
          54.70705032348633 71.41814422607422 83.4140853881836 71.41812133789062 54.707061767578125 37.78399658203125
          21.060710906982422 4.799764633178711 -10.631420135498047 -24.587007522583008 -35.872493743896484 -42.51667404174805
          -22.83197021484375 -18.349164962768555 -10.154090881347656 0.7158156037330627 13.361971855163574 27.119108200073242
          41.47991180419922 55.92148208618164 69.32550048828125 76.58592987060547 69.32546997070312 55.92149353027344
          41.47991943359375 27.119094848632812 13.361992835998535 0.7158257961273193 -10.15408706665039 -18.349159240722656
          -22.83197021484375 -3.064091444015503 -0.3243042230606079 4.861444473266602 12.003402709960938 20.52749252319336
          29.82451057434082 39.20808410644531 47.76811599731445 54.143428802490234 56.585933685302734 54.14342498779297
          47.76811981201172 39.208091735839844 29.824501037597656 20.527507781982422 12.003410339355469 4.861447811126709
          -0.3242990970611572 -3.064091444015503 16.712594985961914 17.70819664001465 19.607032775878906 22.232275009155273
          25.335437774658203 28.61105728149414 31.713668823242188 34.28321838378906 35.98786926269531 36.585941314697266
          35.98786926269531 34.28321838378906 31.713668823242188 28.611055374145508 25.3354434967041 22.232276916503906
          19.60703468322754 17.70819854736328 16.712594985961914 -26.36594009399414 26.365938186645508
        </DataArray>
        <DataArray type="Float32" Name="XLONG" format="ascii" RangeMin="-179.48455810546875" RangeMax="179.36892700195312">
          8.371694564819336 4.598247051239014 1.636704444885254 -0.19567124545574188 -0.7890507578849792 -0.1893191784620285
          1.458791732788086 3.947890043258667 7.02587366104126 10.40759563446045 13.789331436157227 16.86730194091797
          19.356399536132812 21.0045108795166 21.6042423248291 21.010862350463867 19.17848777770996 16.216943740844727
          12.443497657775879 1.9541033506393433 -11.982322692871094 -20.156938552856445 -23.3697509765625 -22.982751846313477
          -19.89471435546875 -14.612192153930664 -7.488495826721191 1.058406114578247 10.407608985900879 19.756799697875977
          28.303688049316406 35.42738342285156 40.70991897583008 43.797943115234375 44.184940338134766 40.972129821777344
          32.79752731323242 18.861101150512695 -17.639755249023438 -42.73664093017578 -48.295867919921875 -47.666099548339844
          -43.994873046875 -38.006710052490234 -29.664302825927734 -18.691835403442383 -5.056703090667725 10.407608985900879
          25.87192153930664 39.507015228271484 50.4794807434082 58.8218994140625 64.81006622314453 68.48129272460938
          69.11106872558594 63.55183410644531 38.45497512817383 -114.75559997558594 -87.73682403564453 -77.85042572021484
          -70.55171203613281 -63.44577407836914 -55.40792465209961 -45.33025360107422 -31.738794326782227 -13.035893440246582
          10.407608985900879 33.85112762451172 52.55397415161133 66.14543914794922 76.22313690185547 84.26097106933594
          91.36691284179688 98.6656265258789 108.55200958251953 135.57078552246094 -149.14385986328125 -119.1825180053711
          -101.98352813720703 -90.6988525390625 -81.71620178222656 -73.12652587890625 -63.29389953613281 -49.69354248046875
          -27.0836238861084 10.407623291015625 47.89887237548828 70.50874328613281 84.10909271240234 93.94172668457031
          102.53137969970703 111.5140380859375 122.79872131347656 139.99766540527344 169.9590301513672 -157.4794921875
          -136.0926513671875 -120.1026840209961 -108.47928619384766 -99.57796478271484 -92.13240051269531 -85.09880828857422
          -77.01148223876953 -62.82917022705078 10.407705307006836 83.64440155029297 97.8266830444336 105.91400909423828
          112.94760131835938 120.39317321777344 129.29443359375 140.91786193847656 156.90782165527344 178.294677734375
          -161.72935485839844 -147.0028076171875 -134.66311645507812 -125.03866577148438 -117.90226745605469 -113.04633331298828
          -110.72171783447266 -112.48270416259766 -124.80217742919922 -169.59246826171875 145.61732482910156 133.29794311523438
          131.53692626953125 133.86154174804688 138.71746826171875 145.85385131835938 155.47828674316406 167.81797790527344
          -177.45547485351562 -164.86500549316406 -155.8251953125 -147.92674255371094 -141.679931640625 -137.44650268554688
          -135.62660217285156 -136.89456176757812 -142.40428161621094 -153.5015106201172 -169.59242248535156 174.3166961669922
          163.21949768066406 157.7097625732422 156.44178771972656 158.26170349121094 162.49513244628906 168.7418975830078
          176.640380859375 -174.31980895996094 -167.88230895996094 -164.615234375 -161.79786682128906 -159.7002410888672
          -158.55374145507812 -158.5375213623047 -159.75291442871094 -162.17576599121094 -165.5966033935547 -169.59242248535156
          -173.5882110595703 -177.00904846191406 -179.43190002441406 179.3527069091797 179.36892700195312 -179.48455810546875
          -177.38693237304688 -174.56954956054688 -171.302490234375 10.40759563446045 -169.59239196777344
        </DataArray>
        <DataArray type="Float32" Name="LU_INDEX" format="ascii" RangeMin="1" RangeMax="18">
          17 17 17 17 17 17
          17 17 17 17 9 9
          7 7 7 7 17 17
          17 15 17 17 17 17
          17 17 17 17 2 2
          2 9 17 17 17 17
          17 17 15 15 17 17
          9 17 17 17 16 16
          16 16 17 17 17 17
          17 15 15 15 17 17
          17 2 2 17 17 17
          12 16 16 17 17 17
          17 17 15 15 17 17
          17 17 17 17 17 17
          17 1 12 10 12 17
          17 17 17 17 17 17
          17 17 17 17 17 4
          18 17 15 17 5 10
          5 17 17 7 17 17
          17 17 17 17 17 17
          10 1 18 15 18 3
          17 17 17 17 17 17
          17 17 17 17 17 17
          17 17 17 17 17 17
          17 17 17 17 17 17
          17 17 17 17 17 17
          17 17 17 17 17 17
          17 17 17 17 17 17
          17 17 17 14.052631378173828 17
        </DataArray>
        <DataArray type="Float32" Name="VAR_SSO" format="ascii" RangeMin="0" RangeMax="87000.1875">
          0 0 0 0 0 0
          29.076244354248047 0 0 173.46023559570312 7280.64453125 1713.4564208984375
          1692.744140625 1739.8660888671875 7091.27685546875 7226.77197265625 4823.7236328125 0
          0 4.797351837158203 0 25.716461181640625 0 0.2496993988752365
          0 2.085860013961792 213.5469970703125 491.6503601074219 4837.2939453125 1371.9881591796875
          9234.8681640625 8803.390625 4278.06494140625 1774.9337158203125 0 33.657005310058594
          0 0 0 279.79180908203125 83.99690246582031 788.7703247070312
          4536.09375 1513.4990234375 0 856.877685546875 1189.1771240234375 1680.3717041015625
          2123.79736328125 16667.064453125 1422.168701171875 3.771632671356201 227.49847412109375 2.434486150741577
          144.08908081054688 0 0 0 0 14436.033203125
          21332.263671875 20417.845703125 3575.385498046875 0 108.07470703125 4956.90673828125
          17120.349609375 26783.99609375 17547.533203125 1307.7265625 1504.5396728515625 0
          0 0 0 0 0 0
          0 0 22447.330078125 15440.55859375 0.29663607478141785 370.9743347167969
          81.44950103759766 1810.5963134765625 818.0090942382812 18975.755859375 58918.20703125 9100.5390625
          4607.1787109375 210.56690979003906 118.09986114501953 0 39.24305725097656 0
          0.005383153911679983 1.0616005659103394 0 152.39044189453125 12764.6376953125 1837.3494873046875
          2981.228271484375 0 0 59.46195602416992 22246.48046875 49258.73046875
          26117.66796875 10170.11328125 4491.7734375 968.1251220703125 1884.122314453125 6880.87109375
          2.9041454792022705 56.10591506958008 37.81855010986328 0 0.5218933820724487 11658.384765625
          25372.888671875 34467.859375 87000.1875 0 9830.3427734375 10086.8408203125
          7919.501953125 1020.3629760742188 10.457804679870605 11677.62890625 3625.6650390625 496.5499572753906
          303.1634826660156 0.001306430553086102 0.03374908119440079 0 0 0
          0 85.04072570800781 1334.7139892578125 5023.85107421875 1058.7508544921875 2133.051025390625
          2624.426025390625 212.7364501953125 0 0.0001379120076308027 4.88595724105835 1.1568914651870728
          0.013057511299848557 0.00029291154351085424 0.0028214429039508104 0 0 3725.49609375
          0 0 0 0 0 0
          0 0 0 0.0014908683951944113 0 0
          0 0 0 1672.158935546875 196.0789794921875
        </DataArray>
        <DataArray type="Float32" Name="U" format="ascii" RangeMin="1" RangeMax="1">
          1 1 1 1 1 1
          1 1 1 1 1 1
          1 1 1 1 1 1
          1 1 1 1 1 1
          1 1 1 1 1 1
          1 1 1 1 1 1
          1 1 1 1 1 1
          1 1 1 1 1 1
          1 1 1 1 1 1
          1 1 1 1 1 1
          1 1 1 1 1 1
          1 1 1 1 1 1
          1 1 1 1 1 1
          1 1 1 1 1 1
          1 1 1 1 1 1
          1 1 1 1 1 1
          1 1 1 1 1 1
          1 1 1 1 1 1
          1 1 1 1 1 1
          1 1 1 1 1 1
          1 1 1 1 1 1
          1 1 1 1 1 1
          1 1 1 1 1 1
          1 1 1 1 1 1
          1 1 1 1 1 1
          1 1 1 1 1 1
          1 1 1 1 1 1
          1 1 1 1 1 1
          1 1 1 1 1
        </DataArray>
        <DataArray type="Float32" Name="V" format="ascii" RangeMin="0" RangeMax="0">
          0 0 0 0 0 0
          0 0 0 0 0 0
          0 0 0 0 0 0
          0 0 0 0 0 0
          0 0 0 0 0 0
          0 0 0 0 0 0
          0 0 0 0 0 0
          0 0 0 0 0 0
          0 0 0 0 0 0
          0 0 0 0 0 0
          0 0 0 0 0 0
          0 0 0 0 0 0
          0 0 0 0 0 0
          0 0 0 0 0 0
          0 0 0 0 0 0
          0 0 0 0 0 0
          0 0 0 0 0 0
          0 0 0 0 0 0
          0 0 0 0 0 0
          0 0 0 0 0 0
          0 0 0 0 0 0
          0 0 0 0 0 0
          0 0 0 0 0 0
          0 0 0 0 0 0
          0 0 0 0 0 0
          0 0 0 0 0 0
          0 0 0 0 0 0
          0 0 0 0 0 0
          0 0 0 0 0
        </DataArray>
        <DataArray type="Float32" Name="W" format="ascii" RangeMin="0" RangeMax="0">
          0 0 0 0 0 0
          0 0 0 0 0 0
          0 0 0 0 0 0
          0 0 0 0 0 0
          0 0 0 0 0 0
          0 0 0 0 0 0
          0 0 0 0 0 0
          0 0 0 0 0 0
          0 0 0 0 0 0
          0 0 0 0 0 0
          0 0 0 0 0 0
          0 0 0 0 0 0
          0 0 0 0 0 0
          0 0 0 0 0 0
          0 0 0 0 0 0
          0 0 0 0 0 0
          0 0 0 0 0 0
          0 0 0 0 0 0
          0 0 0 0 0 0
          0 0 0 0 0 0
          0 0 0 0 0 0
          0 0 0 0 0 0
          0 0 0 0 0 0
          0 0 0 0 0 0
          0 0 0 0 0 0
          0 0 0 0 0 0
          0 0 0 0 0 0
          0 0 0 0 0 0
          0 0 0 0 0
        </DataArray>
        <DataArray type="Float32" Name="PH" format="ascii" RangeMin="-420.1650390625" RangeMax="261.88134765625">
          -55.8487548828125 -45.14111328125 -33.8980712890625 -6.03466796875 22.428955078125 35.33349609375
          40.2901611328125 42.01025390625 58.510009765625 104.192626953125 77.361083984375 53.7548828125
          58.78759765625 43.9375 44.951416015625 45.241455078125 -9.13134765625 -21.462890625
          -49.2789306640625 -139.591552734375 -124.3173828125 -69.759033203125 17.39971923828125 57.11346435546875
          85.71697998046875 105.17279052734375 92.2763671875 98.15185546875 111.6650390625 125.6630859375
          128.77734375 93.57763671875 80.64013671875 62.95654296875 22.7591552734375 -48.893798828125
          -152.21533203125 -238.8580322265625 -331.51953125 -248.96142578125 -67.02911376953125 41.2607421875
          70.830322265625 125.0810546875 133.3909912109375 134.6995849609375 219.69482421875 165.884521484375
          199.572509765625 134.435791015625 118.8544921875 134.43701171875 61.67108154296875 -33.6016845703125
          -82.71142578125 -163.13427734375 -347.22314453125 -273.44677734375 -133.4222412109375 -50.4288330078125
          107.163330078125 151.92333984375 128.10546875 133.070068359375 112.2242431640625 60.634033203125
          82.813720703125 67.25341796875 189.97265625 131.226806640625 146.8817138671875 114.0078125
          42.55517578125 -88.6458740234375 -162.794921875 -420.1650390625 -131.85986328125 -104.09332275390625
          -23.3712158203125 39.5372314453125 45.032470703125 160.4736328125 149.8739013671875 51.51806640625
          -19.69140625 -19.8555908203125 18.880126953125 103.0302734375 261.88134765625 139.570068359375
          139.0135498046875 51.7686767578125 -32.2181396484375 -111.86767578125 -176.44580078125 -49.59326171875
          8.591796875 57.4969482421875 91.9150390625 118.7537841796875 151.09814453125 112.7900390625
          35.2275390625 -79.1904296875 -88.1724853515625 33.0213623046875 58.595703125 156.580078125
          140.388427734375 137.230712890625 111.1715087890625 74.43212890625 29.255126953125 -13.297607421875
          52.76153564453125 113.0321044921875 124.139892578125 108.0640869140625 153.2840576171875 186.072998046875
          228.1162109375 97.943359375 50.262939453125 -124.29052734375 -25.235107421875 37.288330078125
          109.725341796875 147.276123046875 163.38629150390625 153.50732421875 138.755859375 70.17724609375
          67.8348388671875 149.521728515625 120.9212646484375 130.5184326171875 131.87451171875 93.5574951171875
          75.4267578125 64.11181640625 17.6285400390625 -17.192138671875 -21.7584228515625 -43.4281005859375
          -2.288818359375 65.65325927734375 147.257080078125 159.019775390625 155.6806640625 155.79217529296875
          149.7171630859375 144.169921875 139.7178955078125 141.2694091796875 136.1962890625 130.288330078125
          118.71868896484375 126.08953857421875 122.12713623046875 109.24884033203125 113.2508544921875 99.53961181640625
          110.07171630859375 118.1158447265625 136.1036376953125 139.817626953125 141.57861328125 142.55682373046875
          145.9073486328125 142.58203125 141.72515869140625 21.368614196777344 129.20553588867188
        </DataArray>
        <DataArray type="Float32" Name="PHB" format="ascii" RangeMin="2294.1181640625" RangeMax="20361.91796875">
          3325.998046875 3676.02880859375 4080.6484375 4287.978515625 4286.6552734375 4151.51025390625
          3998.4775390625 4058.10546875 4625.3125 5859.509765625 7451.1181640625 8812.0390625
          9449.716796875 9238.7685546875 8270.69140625 6778.392578125 5181.7802734375 3941.59423828125
          3326.751953125 4534.50537109375 2637.265869140625 2294.1181640625 2420.3828125 2464.2685546875
          2405.662109375 2377.787109375 2645.14453125 3966.9345703125 6003.64208984375 8728.1923828125
          10989.2109375 10198.734375 7385.021484375 5653.44482421875 4270.556640625 2834.58447265625
          3375.41650390625 4397.6806640625 13282.7080078125 2907.296630859375 2419.13330078125 4098.3115234375
          6305.7109375 4614.6650390625 2419.13330078125 2816.896484375 5182.736328125 7207.048828125
          8296.44140625 8180.7578125 4726.34765625 2419.402587890625 2419.20068359375 2419.13330078125
          2433.0068359375 9229.703125 16809.46875 12402.421875 3107.468505859375 2769.03369140625
          5080.04296875 7577.76220703125 5001.625 2419.13330078125 2419.74462890625 3626.83544921875
          5999.97802734375 8844.482421875 9598.7490234375 5086.90234375 2492.004150390625 2455.03125
          2419.13330078125 2419.13330078125 10275.7490234375 20361.91796875 4245.81689453125 2625.642822265625
          2699.279541015625 3262.73388671875 4065.048095703125 3267.83935546875 2419.13330078125 2419.13330078125
          3247.672607421875 3886.5908203125 6069.65673828125 12092.0009765625 12317.708984375 5359.9169921875
          2551.29296875 3400.905029296875 3382.417236328125 4740.46728515625 7416.54296875 2419.13330078125
          2419.13330078125 2419.14501953125 2419.13330078125 2420.50390625 4049.83984375 6619.822265625
          6453.7060546875 4847.4892578125 3135.68896484375 4435.7548828125 11650.9501953125 14239.619140625
          6733.314453125 2942.332763671875 3475.37939453125 3706.87158203125 2464.350830078125 3261.625732421875
          2419.718994140625 2420.694091796875 2419.1435546875 2419.13330078125 2419.15869140625 5396.486328125
          10181.6953125 8896.556640625 4733.6162109375 3384.314453125 5303.234375 7418.408203125
          6603.37451171875 3751.96484375 2419.13427734375 2628.9013671875 2822.43505859375 2692.25634765625
          2552.49365234375 2404.29443359375 2426.84375 2456.073974609375 2369.454345703125 2407.31982421875
          3530.316162109375 5084.93017578125 4536.2470703125 3048.77734375 2901.39453125 3571.6630859375
          3166.575439453125 2450.954345703125 2368.73486328125 2435.560546875 2431.85693359375 2409.892578125
          2421.404296875 2422.466796875 2423.691650390625 2428.172607421875 2433.85205078125 2438.38037109375
          2438.027587890625 2433.546875 2427.36181640625 2423.082275390625 2420.414306640625 2418.976806640625
          2418.401611328125 2418.365966796875 2418.5966796875 2418.93408203125 2419.04296875 2418.936279296875
          2418.86181640625 2419.396484375 2420.884033203125 5515.84619140625 2424.048828125
        </DataArray>
        <DataArray type="Float32" Name="T" format="ascii" RangeMin="-53.417633056640625" RangeMax="18.915130615234375">
          -21.1217041015625 -20.1019287109375 -18.8214111328125 -15.847198486328125 -12.7845458984375 -11.135406494140625
          -10.791473388671875 -10.196502685546875 -5.36419677734375 2.77764892578125 -1.142822265625 -3.697296142578125
          -3.434539794921875 -5.042510986328125 -5.007049560546875 -6.2091064453125 -13.908843994140625 -16.066925048828125
          -19.822509765625 -26.23187255859375 -28.939727783203125 -23.781097412109375 -13.164764404296875 -9.7147216796875
          -6.738433837890625 -4.901824951171875 -5.6478271484375 -4.27337646484375 -2.1136474609375 2.0894775390625
          2.734130859375 -1.82000732421875 -3.23748779296875 -4.0640869140625 -12.3973388671875 -17.31298828125
          -27.12579345703125 -37.332305908203125 -41.4571533203125 -37.996551513671875 -22.118255615234375 -10.57769775390625
          -5.6402587890625 0.34881591796875 -1.631134033203125 -1.24566650390625 17.600921630859375 10.302215576171875
          11.67401123046875 2.54083251953125 -1.4998779296875 -1.049163818359375 -8.87548828125 -18.616790771484375
          -21.392242431640625 -21.786773681640625 -46.05938720703125 -36.711334228515625 -22.00872802734375 -18.258880615234375
          0.256103515625 6.512786865234375 1.671783447265625 -2.161865234375 -4.7127685546875 -8.58050537109375
          -1.484344482421875 -4.544189453125 14.670562744140625 1.370086669921875 0.089111328125 -3.17706298828125
          -10.218963623046875 -23.34185791015625 -21.602386474609375 -53.417633056640625 -23.002716064453125 -22.718780517578125
          -15.48736572265625 -10.63916015625 -6.948699951171875 1.612274169921875 -0.583587646484375 -8.62139892578125
          -12.728057861328125 -15.01580810546875 -8.7373046875 4.64434814453125 15.53704833984375 2.201171875
          -0.36444091796875 -8.342041015625 -17.134521484375 -25.192840576171875 -25.542755126953125 -20.15087890625
          -12.20599365234375 -9.13385009765625 -5.38861083984375 -2.767730712890625 1.008148193359375 0.053741455078125
          -8.279205322265625 -19.30316162109375 -20.253143310546875 -8.307098388671875 -2.9940185546875 8.136474609375
          3.432281494140625 1.21832275390625 -3.2554931640625 -4.751312255859375 -10.68157958984375 -14.8673095703125
          -7.899383544921875 -3.145660400390625 -2.0643310546875 -3.544403076171875 0.712158203125 8.614654541015625
          18.915130615234375 -0.640594482421875 -4.886627197265625 -24.850738525390625 -16.208892822265625 -6.840667724609375
          0.634857177734375 0.362579345703125 1.81719970703125 2.072052001953125 -0.534515380859375 -6.333404541015625
          -6.702178955078125 0.289398193359375 -2.051177978515625 -1.412017822265625 -0.934844970703125 -5.258026123046875
          -7.405731201171875 -7.97015380859375 -11.10284423828125 -14.125 -14.759857177734375 -17.4842529296875
          -12.172393798828125 -8.1123046875 0.05859375 0.393341064453125 0.703460693359375 0.890350341796875
          0.431182861328125 0.33514404296875 -0.815185546875 -1.074920654296875 -1.576263427734375 -1.762176513671875
          -3.66009521484375 -3.19500732421875 -3.777984619140625 -5.0130615234375 -4.640594482421875 -5.68487548828125
          -4.605010986328125 -4.338623046875 -2.808624267578125 -1.86407470703125 -1.5155029296875 -0.9918212890625
          -0.72198486328125 -1.0067138671875 -1.059539794921875 -10.406227111816406 -2.637476921081543
        </DataArray>
        <DataArray type="Float32" Name="THM" format="ascii" RangeMin="-53.401580810546875" RangeMax="28.525390625">
          -19.797393798828125 -18.513214111328125 -17.009735107421875 -13.189422607421875 -9.1156005859375 -7.249847412109375
          -6.47406005859375 -5.981536865234375 -1.64764404296875 4.37158203125 0.174591064453125 -2.37353515625
          -1.7557373046875 -3.721588134765625 -3.857330322265625 -4.183624267578125 -10.66754150390625 -13.969879150390625
          -18.279571533203125 -24.898895263671875 -27.8125 -22.29339599609375 -9.43609619140625 -5.53155517578125
          -1.630828857421875 1.580322265625 0.0130615234375 1.44110107421875 5.258941650390625 9.02197265625
          9.262908935546875 3.517578125 0.920318603515625 -1.779998779296875 -8.807525634765625 -14.44195556640625
          -26.421051025390625 -36.886138916015625 -41.38763427734375 -37.52008056640625 -20.07666015625 -6.1947021484375
          -1.990325927734375 5.705902099609375 6.007232666015625 6.419769287109375 19.3121337890625 12.284454345703125
          18.260040283203125 10.184234619140625 5.7818603515625 6.336578369140625 -4.34222412109375 -16.726593017578125
          -19.1968994140625 -20.672088623046875 -45.99151611328125 -36.480987548828125 -20.341827392578125 -16.31549072265625
          2.76556396484375 9.852386474609375 8.606719970703125 4.8155517578125 1.989959716796875 -3.53033447265625
          2.2718505859375 -0.6533203125 17.57562255859375 9.61505126953125 8.48760986328125 4.089569091796875
          -5.610992431640625 -21.285675048828125 -20.548583984375 -53.401580810546875 -21.470550537109375 -21.207763671875
          -12.71246337890625 -6.656036376953125 -2.165191650390625 10.06109619140625 6.880218505859375 -4.03363037109375
          -8.907806396484375 -12.012664794921875 -5.551483154296875 7.69561767578125 28.525390625 10.550811767578125
          8.1060791015625 -4.295379638671875 -14.60845947265625 -23.72674560546875 -24.598114013671875 -18.331512451171875
          -8.357635498046875 -4.866455078125 0.058074951171875 4.797637939453125 8.759429931640625 5.68524169921875
          -5.00750732421875 -17.849822998046875 -17.970977783203125 -3.820159912109375 0.8541259765625 15.282470703125
          11.36151123046875 8.391387939453125 3.405426025390625 -1.7086181640625 -7.08563232421875 -12.161407470703125
          -3.869842529296875 3.542236328125 4.176849365234375 3.070648193359375 9.3455810546875 14.40069580078125
          21.423736572265625 4.963043212890625 -1.070281982421875 -23.259918212890625 -13.937164306640625 -4.229644775390625
          7.501708984375 7.751800537109375 10.68585205078125 10.080963134765625 7.7188720703125 -2.438232421875
          -2.41827392578125 8.431182861328125 4.525604248046875 6.742034912109375 6.0992431640625 1.0677490234375
          -1.9342041015625 -2.6451416015625 -6.88604736328125 -10.892059326171875 -11.530364990234375 -15.127960205078125
          -7.977752685546875 -2.222259521484375 7.583770751953125 9.009368896484375 9.186248779296875 9.110321044921875
          8.45880126953125 8.23211669921875 6.46844482421875 6.632293701171875 5.681365966796875 4.775054931640625
          3.002044677734375 4.00775146484375 3.195556640625 1.004486083984375 1.477081298828125 -0.273651123046875
          1.017852783203125 2.130401611328125 4.6490478515625 5.45965576171875 5.964813232421875 6.245208740234375
          6.9586181640625 6.398284912109375 6.601898193359375 -8.065320014953613 4.284010887145996
        </DataArray>
        <DataArray type="Float32" Name="MU" format="ascii" RangeMin="-4403.1484375" RangeMax="3800.7578125">
          3135.421875 3403.1015625 3477.4375 3225.25 2781.953125 2452.6640625
          2201.5078125 1978.890625 1706.4140625 1449.6015625 1747.4453125 1908.09375
          2094.765625 2106.125 2052.421875 1950.8046875 2161.9609375 2229.921875
          2622.796875 -186.25 3215.03125 3800.7578125 2151.453125 2552.40625
          2022.6171875 1499.421875 1596.1171875 1499.109375 1232.296875 1036.125
          1187.875 1726.6640625 1746.0859375 2094.9609375 2342.9765625 152.5078125
          -915.765625 -804.078125 -3010.25 362.9453125 2367.234375 2460.8046875
          2551.015625 1497.0625 1196.21875 950.5546875 565.1953125 903.3828125
          461.1484375 689.796875 719.9921875 664.046875 1745.0703125 2473.078125
          377.3828125 -4403.1484375 -1797.25 -2520.5390625 -3890.9296875 891.859375
          1846.21875 1464.84375 1085.1328125 1582.78125 2062.3515625 1898.90625
          202.3828125 1093.8125 209.2109375 -656.21875 341.890625 641.3359375
          1357.1953125 1509.703125 -4236.1796875 -2968.9609375 -2346.203125 -618.8203125
          647.6640625 2027.09375 915.546875 542.59375 1780.2421875 1877.9921875
          -972.4296875 609.5234375 1485.875 442.390625 654.8515625 -428.2578125
          332.5234375 1346.6875 1591.8515625 1558.109375 -3505.265625 2549.15625
          201.7578125 1991.65625 1322.25 695.6328125 979.3203125 1060.046875
          1550.59375 403.9453125 727.640625 787.8828125 1058.1640625 165.515625
          -182.828125 142.2421875 958.96875 1307.9453125 1078.0390625 1404.28125
          1175.3125 992.0625 1096.53125 764.3515625 490.6171875 748.890625
          966.5234375 629.953125 -0.484375 -62.3671875 2180.5078125 1418.2421875
          143.125 1140.625 325.390625 173.1796875 480.546875 1282.34375
          1030.6953125 454.9296875 681.8125 385.5859375 662.3515625 1075.0078125
          2020.9609375 2274.3671875 1493.4296875 23.90625 575.1328125 1397.28125
          610.453125 1359.3359375 1121.34375 979.03125 604.6328125 485.375
          444.9921875 359.8125 994.5703125 1048.1640625 1236.1640625 1424.328125
          1681.25 1819.921875 2051.4140625 2362.7578125 2444.1328125 2567.0625
          2487.6640625 2363.359375 2108.171875 1818.8671875 1560.8203125 1349.453125
          1163.3828125 1148.109375 1044.6875 2351.925048828125 1719.698974609375
        </DataArray>
        <DataArray type="Float32" Name="MUB" format="ascii" RangeMin="75107.71875" RangeMax="95151.609375">
          93905.921875 93486.21875 93002.953125 92756.0546875 92757.640625 92918.5
          93100.9453125 93029.828125 92355.484375 90901.3515625 89052.5078125 87494.984375
          86772.5078125 87011.0078125 88111.984375 89830.3671875 91697.6328125 93168.8046875
          93904.9765625 92463.1953125 94735.9453125 95151.609375 94998.4765625 94945.328125
          95016.3046875 95050.125 94726.3828125 93138.5625 90732.7109375 87590.3359375
          85047.34375 85929.8125 89128.6953125 91142.8828125 92776.796875 94497.5390625