<?xml version="1.0"?>
<VTKFile type="UnstructuredGrid" version="0.1" byte_order="LittleEndian" header_type="UInt32" compressor="vtkZLibDataCompressor">
  <UnstructuredGrid>
    <Piece NumberOfPoints="1089" NumberOfCells="1024">
      <PointData>
        <DataArray type="Float64" Name="P1" format="ascii" RangeMin="-12425954.414287694" RangeMax="37888182.4701925">
          -10606215.520262375 3242295.968479351 3258950.255036991 -1996659.4836381075 -3964940.0705945967 -3694798.032257419
          -2235139.8950515175 1622001.4372333442 9084593.060807403 16947913.863038026 22007242.731292583 25284049.5604058
          27799804.24521238 29641118.34538859 30894603.42061068 31689341.001635645 32154412.619220458 32339586.612202115
          32294631.319417596 32034851.84159562 31575553.279464893 30900410.033156272 29993096.502800606 28790495.245607983
          27229488.8187885 25242162.139226653 22760600.12380696 19357062.485482186 14603808.937205091 9456756.1450073
          4871820.774920429 1038479.6305798327 -1853790.4843791444 -10797699.430827238 3300832.160657741 3317787.1217056448
          -2032707.0454745851 -4036522.8386740056 -3761503.672995217 -2275492.9635408176 1651284.9425476664 9248605.698128711
          17253890.369820967 22404560.024243083 25740526.105520513 28301700.057778705 30176257.120034114 31452372.531303197
          32261458.251692433 32734926.241308313 32923443.35325958 32877676.440654982 32613206.92149203 32145616.213768233
          31458283.976324603 30534589.868002158 29310276.927908 27721088.195149247 25697882.45223101 23171518.481658407
          19706533.601728305 14867465.130737554 9627487.79056917 4959776.303106171 1057228.2732331837 -1887258.6941651576
          -10983196.430286024 3357538.173617644 3374784.409789672 -2067627.5423826172 -4105867.5035119024 -3826123.6993687865
          -2314584.355723872 1679652.875123637 9407490.340874536 17550300.26062695 22789454.853479005 26182730.522219725
          28787903.669638153 30694664.324294984 31992702.51475093 32815687.767600846 33297289.609439578 33489045.31483089
          33442492.15833857 33173479.23593251 32697855.643582616 31998715.514175694 31059152.980598565 29813807.19185939
          28197317.29696634 26139354.280179307 23569589.12575819 20045078.204642195 15122877.887770534 9792881.364898646
          5044981.825781967 1075390.722737376 -1919680.4919182425 -11161722.917606467 3412113.31494081 3429639.880224711
          -2101235.817036929 -4172606.3721262733 -3888315.469304581 -2352206.7928331117 1706954.8110729707 9560404.496198501
          17835571.809697013 23159886.29872205 26608318.004284266 29255836.967394326 31193591.08417069 32512728.250731807
          33349090.726468198 33838520.77077039 34033393.37140062 33986083.51612111 33712697.920207456 33229343.298935235
          32518838.988587663 31564004.325447958 30298416.049850564 28655650.90212992 26564236.702782348 23952701.272304185
          20370901.14953276 15368692.87330542 9952059.86313512 5126985.538534845 1092870.6730853475 -1950883.9596326165
          -11332279.08025417 3464251.944873849 3482046.323602737 -2133343.6499709175 -4236365.681750523 -3947730.6854717033
          -2388149.5748700825 1733037.8502840986 9706491.790220598 18108107.394038677 23513779.81083761 27014905.10885414
          29702879.356325034 31670243.230353512 33009537.408042815 33858679.879799485 34355588.63603006 34553438.97794226
          34505406.206743754 34227843.155587465 33737102.65762628 33015741.520850234 32046316.553249363 30761389.51778053
          29093522.177400608 26970150.225454185 24318709.355285857 20682177.710537758 15603533.434852015 10104131.828307485
          5205328.1909830095 1109570.2302006623 -1980694.3467174822 -11493859.936849494 3513646.8451842754 3531694.944361535
          -2163761.84676314 -4296769.735635175 -4004019.248541813 -2422200.911770297 1757748.302633989 9844891.422625659
          18366301.132737365 23849050.117501754 27400096.07314927 30126396.695910364 32121812.150502615 33480202.60164361
          34341452.5379926 34845446.44820882 35046117.83144512 34997400.18685435 34715879.51381872 34218141.81172043
          33486495.17548085 32503247.70002132 31199999.58284268 29508351.021445733 27354703.053857274 24665456.718104094
          20977073.72962402 15826015.803854916 10248201.19534989 5279548.158662055 1125390.993773605 -2008935.9993332697
          -11645467.557807695 3559992.9506079187 3578279.1100612553 -2192302.544146808 -4353445.476715394 -4056833.5188464695
          -2454150.5017420063 1780933.554939724 9974748.631540447 18608558.410953354 24163626.57607165 27761511.94266976
          30523773.326522134 32545508.937384456 33921816.98501243 34794427.07838636 35305068.82648655 35508387.1282514
          35459026.88261931 35173792.86351104 34669489.84484736 33928192.55976702 32931975.741408795 31611537.37240457
          29897575.435386226 27715520.174966812 24990801.83575939 21253767.917702336 16034765.920734055 10383378.186410166
          5349187.0562863145 1140235.2542279016 -2035434.4958996598 -11786124.267659742 3602991.3870378835 3621498.411071481
          -2218781.6923803906 -4406027.420139171 -4105832.9129680498 -2483792.3116302127 1802444.09129217 10095226.003216924
          18833316.978008576 24455480.56953165 28096822.04605531 30892446.675848734 32938601.287322488 34331532.708887115
          35214682.39324222 35731491.79308736 35937265.82136705 35887309.39102576 35598630.248016536 35088236.1382924
          34337985.289381504 33329735.928811997 31993348.99306864 30258685.418636184 28050274.77899534 25292646.6476268
          21510475.950559825 16228437.61382373 10508791.082582468 5413795.802000037 1154007.2851554996 -2060018.9548720769
          -11914886.577166935 3642353.7321021166 3661062.9435784644 -2243021.6758868503 -4454162.859442789 -4150688.755250063
          -2510927.51146938 1822135.6248155897 10205515.406521177 19039069.21112351 24722654.416098706 28403777.209016636
          31229943.777447153 33298452.43743334 34706601.50501827 35599399.517408445 36121855.01181037 36329877.10218975
          36279374.902512334 35987541.96677171 35471571.84896149 34713124.57943575 33693860.18854859 32342873.35005077
          30589258.737693086 28356721.41757761 25568966.45580641 21745475.89626308 16405731.782831222 10623598.646132808
          5472941.016789844 1166614.7072586608 -2082524.470004405 -12030859.535535038 3677806.401717305 3696697.718348596
          -2264854.0163535275 -4497517.23310143 -4191089.2787234923 -2535367.5000480884 1839871.291701509 10304850.285302026
          19224385.048341103 24963291.14840637 28680243.96770726 31533918.8884532 33622561.2750282 35044416.491816245
          35945904.509438746 36473445.29851711 36683492.16160865 36632498.401270695 36337824.92410276 35816832.63670435
          35051003.058243714 34021817.7078891 32657681.105909918 30886997.772575565 28632730.161027912 25817840.724408835
          21957134.408874612 16565416.160581505 10727002.91737643 5526211.617106304 1177969.893732173 -2102794.618784913
          -12133211.143961769 3709095.0557054025 3728147.0887692003 -2284122.0869366652 -4535779.513578483 -4226744.64702696
          -2556936.9431528035 1855523.8547626615 10392518.00343811 19387935.019645672 25175664.420157485 28924238.928516027
          31802191.268263794 33908602.61863628 35342554.15886896 36251711.51617572 36783740.31777043 36995574.138322376
          36944146.55250082 36646966.163476795 36121541.57442133 35349196.759957545 34311255.694708586 32935513.805928726
          31149766.520872306 28876320.901700694 26037484.01057523 22143933.034199584 16706345.15927739 10818262.066273823
          5573225.435654047 1187991.3816208558 -2120683.981622961 -12221186.43615742 3735988.902482384 3755179.077747261
          -2300683.7625639443 -4568667.470652388 -4257391.859076079 -2575476.74039302 1868977.8572673667 10467871.905775657
          19528512.746977963 25358207.722720407 29133962.334820572 32032782.085096095 34154466.569002934 35598815.381997064
          36514564.842846125 37050451.270317785 37263821.052128986 37212020.57599671 36912685.396189965 36383451.066977724
          35605506.147158965 34560039.19553263 33174322.099598553 31375626.746856578 29085696.864763916 26226276.18077776
          22304493.907619987 16827479.258012485 10896702.946840866 5613635.68899075 1196605.25041702 -2136060.6029254473
          -12294120.810770344 3758284.774937688 3777589.4745630235 -2314413.9296072004 -4595932.655285847 -4282799.393311022
          -2590846.8345208266 1880131.6622613089 10530342.738211954 19645056.248780496 25509542.049416337 29307829.850319866
          32223949.361691505 34358295.769367315 35811264.25918337 36732478.78798115 37271563.312602155 37486206.45618771
          37434096.84187915 37132975.27052945 36600582.54299154 35817994.953947596 34766288.79807977 33372301.93142734
          31562872.210029617 29259276.33857699 26382791.021759823 22437604.08663354 16927903.36025354 10961732.984567638
          5647137.101523654 1203746.4274296637 -2148808.3214062536 -12351452.19744869 3775810.8494748594 3795205.573021642
          -2325206.77624005 -4617364.94774192 -4302771.445990219 -2602928.775491195 1888899.3128308712 10579449.068051698
          19736667.38014359 25628501.139078867 29444501.56133104 32374219.86337366 34518519.405653104 35978263.548615776
          36903773.9930954 37445372.43992573 37661016.532604024 37608663.914627515 37306138.11783381 36771262.674060464
          35985025.63074619 34928415.035329655 33527927.565556195 31710059.89917112 29395721.629156873 26505822.34849586
          22542237.75474245 17006843.545450993 11012851.024024824 5673471.493867267 1209359.8790141004 -2158828.8964988934
          -12392731.654829087 3788429.8857320254 3807889.4278491014 -2332977.7875209083 -4632796.519421049 -4317151.623145878
          -2611627.9539899537 1895212.1526317738 10614806.361304352 19802628.76732 25714153.465970922 29542907.2409727
          32482416.876040924 34633882.82435607 36098505.53909867 37027109.10723096 37570517.61571521 37786882.40673551
          37734354.822475955 37430817.96232242 36894154.92566075 36105290.22059232 35045148.355218485 33639980.353800945
          31816037.24060144 29493964.282672767 26594406.747067742 22617575.563457515 17063681.66151322 11049656.77830574
          5692432.650905961 1213401.6482565992 -2166043.86069963 -12417632.036012508 3796041.875632863 3815540.51729989
          -2337665.3767793747 -4642105.072372873 -4325825.959336653 -2616875.4275267594 1899020.1512441472 10636134.405163402
          19842417.65470595 25765820.220346734 29602267.006947655 32547682.919370636 34703471.7501349 36171037.29175971
          37101506.677973285 37646007.04250386 37862806.569457985 37810173.44294215 37506026.69437056 36968285.35515742
          36177835.60553362 35115563.62573005 33707572.25818193 31879964.34532443 29553225.708888393 26647842.170604646
          22663020.44745716 17097967.256429933 11071858.555378981 5703870.302160346 1215839.7034300305 -2170396.0341559583
          -12425954.414287694 3798586.007741151 3818097.7175423764 -2339232.0953857354 -4645216.241544902 -4328725.156186284
          -2618629.2745610387 1900292.8869666841 10643262.812032737 19855716.172857653 25783088.641661987 29622106.640005656
          32569496.589448594 34726730.24399556 36195279.35765136 37126372.35053769 37671237.64277627 37888182.4701925
          37835514.06861178 37531163.47889997 36993061.74192295 36202082.22770486 35139098.30626983 33730163.293694146
          31901330.506054044 29573032.47415819 26665701.72881524 22678209.352073494 17109426.42598125 11079278.987443835
          5707693.073366565 1216654.5671554785 -2171850.6477833875 -12417632.036016608 3796041.8756303466 3815540.517298142
          -2337665.3767806957 -4642105.072373641 -4325825.959336968 -2616875.427526956 1899020.1512439984 10636134.405163502
          19842417.654706262 25765820.220346976 29602267.006947644 32547682.91937023 34703471.75013431 36171037.291759476
          37101506.67797332 37646007.04250345 37862806.56945698 37810173.44294101 37506026.69436957 36968285.35515667
          36177835.605533116 35115563.625729725 33707572.258181676 31879964.345324155 29553225.708888147 26647842.170604646
          22663020.44745743 17097967.2564303 11071858.555379609 5703870.302161694 1215839.703431186 -2170396.034157284
          -12392731.654833283 3788429.88572983 3807889.427847467 -2332977.7875225134 -4632796.519422253 -4317151.6231466085
          -2611627.95399044 1895212.1526314393 10614806.361304214 19802628.767319996 25714153.465970896 29542907.240972497
          32482416.87604039 34633882.82435538 36098505.5390983 37027109.10723078 37570517.615714446 37786882.40673407
          37734354.822474405 37430817.96232112 36894154.92565986 36105290.220591836 35045148.35521827 33639980.353800826
          31816037.24060119 29493964.28267247 26594406.747067783 22617575.563457903 17063681.661513623 11049656.77830634
          5692432.650907451 1213401.648257924 -2166043.860701273 -12351452.197447393 3775810.8494768688 3795205.573022713
          -2325206.7762404047 -4617364.9477430275 -4302771.445991479 -2602928.775492081 1888899.312830329 10579449.06805092
          19736667.38014251 25628501.13907793 29444501.56133049 32374219.8633735 34518519.40565311 35978263.54861549
          36903773.993094705 37445372.4399248 37661016.53260303 37608663.91462663 37306138.11783319 36771262.67406029
          35985025.63074645 34928415.03533018 33527927.565556727 31710059.89917132 29395721.629156794 26505822.34849596
          22542237.754742708 17006843.545450937 11012851.024024475 5673471.493867164 1209359.8790141486 -2158828.89649942
          -12294120.810765745 3758284.7749417867 3777589.474565659 -2314413.9296063804 -4595932.655286585 -4282799.39331257
          -2590846.834521946 1880131.6622607573 10530342.738211017 19645056.24877906 25509542.04941512 29307829.85031935
          32223949.361691896 34358295.769368134 35811264.25918344 36732478.7879803 37271563.312601216 37486206.45618704
          37434096.84187864 37132975.270529136 36600582.54299165 35817994.95394813 34766288.79808053 33372301.931428052
          31562872.21002992 29259276.33857686 26382791.02175964 22437604.086633302 16927903.360252906 10961732.98456654
          5647137.101522278 1203746.4274285801 -2148808.321406095 -12221186.436157858 3735988.902481817 3755179.0777473324
          -2300683.7625634773 -4568667.47065278 -4257391.859077355 -2575476.7403939804 1868977.8572670962 10467871.90577563
          19528512.74697796 25358207.722720426 29133962.33482079 32032782.0850968 34154466.56900392 35598815.38199761
          36514564.84284593 37050451.270316966 37263821.052127734 37212020.57599527 36912685.3961886 36383451.06697678
          35605506.147158474 34560039.19553239 33174322.09959834 31375626.746856198 29085696.864763267 26226276.18077691
          22304493.90761907 16827479.25801172 10896702.9468403 5613635.688990231 1196605.2504163443 -2136060.6029265323
          -12133211.143966407 3709095.0557007585 3728147.08876673 -2284122.0869368943 -4535779.513578514 -4226744.6470275605
          -2556936.9431534647 1855523.8547623567 10392518.003438486 19387935.01964656 25175664.420158237 28924238.92851643
          31802191.26826406 33908602.61863653 35342554.158869304 36251711.51617586 36783740.31776971 36995574.138320796
          36944146.55249903 36646966.16347516 36121541.57441993 35349196.759956434 34311255.694707796 32935513.80592825
          31149766.52087202 28876320.901700445 26037484.010574844 22143933.034199227 16706345.159277616 10818262.066274624
          5573225.435654856 1187991.3816207857 -2120683.98162511 -12030859.535534734 3677806.401715933 3696697.718347562
          -2264854.016353556 -4497517.233101133 -4191089.2787234313 -2535367.5000487086 1839871.2917003222 10304850.285300946
          19224385.04834031 24963291.148405574 28680243.967706323 31533918.888452124 33622561.27502709 35044416.49181533
          35945904.50943804 36473445.29851642 36683492.16160814 36632498.40127082 36337824.92410341 35816832.6367048
          35051003.05824393 34021817.70788976 32657681.10591124 30886997.772577357 28632730.161029994 25817840.72441103
          21957134.408876903 16565416.160584055 10727002.917378724 5526211.617107142 1177969.8937314886 -2102794.61878606
          -11914886.577161865 3642353.73210469 3661062.9435793906 -2243021.6758867837 -4454162.8594428515 -4150688.755250333
          -2510927.511470745 1822135.6248130589 10205515.406518219 19039069.211120572 24722654.416095957 28403777.20901419
          31229943.777445085 33298452.437431615 34706601.505016774 35599399.51740734 36121855.01181015 36329877.10219073
          36279374.90251463 35987541.96677479 35471571.84896412 34713124.579437785 33693860.18855094 32342873.350053865
          30589258.73769685 28356721.41758189 25568966.45581098 21745475.896267764 16405731.782835888 10623598.64613642
          5472941.016790428 1166614.7072569886 -2082524.4700048275 -11786124.26765876 3602991.3870383147 3621498.411071225
          -2218781.6923813107 -4406027.420140575 -4105832.912970052 -2483792.311633226 1802444.0912883652 10095226.00321318
          18833316.978005223 24455480.569528513 28096822.046052612 30892446.675847083 32938601.287321895 34331532.70888701
          35214682.39324246 35731491.79308828 35937265.82136882 35887309.39102842 35598630.24801974 35088236.138295434
          34337985.28938418 33329735.92881461 31993348.99307158 30258685.41863991 28050274.77899981 25292646.64763145
          21510475.950564604 16228437.61382903 10508791.082587145 5413795.802001372 1154007.2851536362 -2060018.9548741274
          -11645467.55780976 3559992.950605278 3578279.1100589824 -2192302.5441486053 -4353445.476717444 -4056833.5188493235
          -2454150.501746027 1780933.5549349715 9974748.631536197 18608558.410950005 24163626.57606875 27761511.942667477
          30523773.3265212 32545508.93738486 33921816.985013396 34794427.078387536 35305068.82648802 35508387.12825318
          35459026.88262133 35173792.8635133 34669489.84484989 33928192.55976973 32931975.741411418 31611537.372407284
          29897575.435389664 27715520.174971018 24990801.8357638 21253767.917707082 16034765.920739941 10383378.186416075
          5349187.056289197 1140235.254226986 -2035434.4959028813 -11493859.93684484 3513646.845183157 3531694.944359245
          -2163761.8467644625 -4296769.735635855 -4004019.2485428923 -2422200.9117735373 1757748.3026286995 9844891.4226203
          18366301.132733 23849050.11749854 27400096.073147193 30126396.69590924 32121812.150502115 33480202.60164327
          34341452.537992425 34845446.448209316 35046117.831446365 34997400.18685599 34715879.51382065 34218141.811722845
          33486495.175483853 32503247.700024962 31199999.5828469 29508351.021450404 27354703.053862426 24665456.718109906
          20977073.72963071 15826015.803862697 10248201.195357472 5279548.158666638 1125390.9937744872 -2008935.9993346953
          -11332279.08024525 3464251.9448750815 3482046.323601923 -2133343.649970883 -4236365.681749498 -3947730.685471025
          -2388149.574872571 1733037.8502783943 9706491.790214395 18108107.39403354 23513779.810833942 27014905.10885174
          29702879.356323045 31670243.230351526 33009537.408040836 33858679.87979788 34355588.636029564 34553438.97794301
          34505406.20674532 34227843.155589625 33737102.657629065 33015741.520853773 32046316.55325387 30761389.517785862
          29093522.177406263 26970150.225460254 24318709.355293024 20682177.71054625 15603533.434861606 10104131.828316528
          5205328.190988443 1109570.2302022635 -1980694.3467171025 -11161722.917605601 3412113.3149415283 3429639.880225754
          -2101235.817035523 -4172606.3721249 -3888315.4693045085 -2352206.7928364775 1706954.8110666813 9560404.49619245
          17835571.809692454 23159886.29871832 26608318.004280984 29255836.967391387 31193591.084168177 32512728.250729993
          33349090.726467222 33838520.770770244 34033393.37140131 33986083.51612267 33712697.92020991 33229343.298938587
          32518838.988591682 31564004.32545214 30298416.04985488 28655650.90213483 26564236.70278816 23952701.27231104
          20370901.149540953 15368692.873315373 9952059.8631448 5126985.538539722 1092870.6730853675 -1950883.9596330386
          -10983196.430288278 3357538.173619762 3374784.40979254 -2067627.5423806838 -4105867.5035106493 -3826123.6993691414
          -2314584.3557279445 1679652.8751166074 9407490.34086818 17550300.260622393 22789454.853474885 26182730.522215664
          28787903.66963477 30694664.32429271 31992702.514749978 32815687.767601 33297289.60944019 33489045.314831793
          33442492.15834003 33173479.235934768 32697855.64358588 31998715.514179714 31059152.980602644 29813807.191863555
          28197317.296971336 26139354.28018535 23569589.12576498 20045078.20465008 15122877.887780508 9792881.364908483
          5044981.825786227 1075390.722736328 -1919680.491918628 -10797699.4308187 3300832.160664554 3317787.121709379
          -2032707.0454732617 -4036522.8386724056 -3761503.6729940167 -2275492.9635440614 1651284.9425400284 9248605.698120816
          17253890.369814675 22404560.02423798 25740526.10551642 28301700.05777569 30176257.120032195 31452372.531302284
          32261458.25169237 32734926.241308816 32923443.353260465 32877676.44065615 32613206.921493597 32145616.213770527
          31458283.976328015 30534589.86800714 29310276.927914415 27721088.19515634 25697882.452238534 23171518.481666546
          19706533.601737402 14867465.130748114 9627487.790579112 4959776.303110825 1057228.2732333348 -1887258.6941632824
          -10606215.520274743 3242295.9684753274 3258950.255037053 -1996659.483636774 -3964940.0705933603 -3694798.0322578973
          -2235139.895055577 1622001.4372262866 9084593.06080038 16947913.86303248 22007242.731288366 25284049.560402617
          27799804.24520982 29641118.345386412 30894603.420608833 31689341.001634136 32154412.61921934 32339586.612201743
          32294631.319418617 32034851.841598034 31575553.279468074 30900410.033159662 29993096.502803713 28790495.24561106
          27229488.81879253 25242162.13923198 22760600.12381325 19357062.48548977 14603808.937214948 9456756.145017192
          4871820.774924902 1038479.6305777888 -1853790.4843844362
        </DataArray>
        <DataArray type="Float64" Name="P2" format="ascii" RangeMin="-276013278.47997093" RangeMax="735914.8078955422">
          -235592069.69946802 -161990927.98295614 -111062699.76464571 -75236347.83845356 -46940834.99829647 -25921692.801123604
          -11924452.803884191 -4523346.972183892 -3292607.2716283663 -4566490.822492589 -4679254.745051533 -4280180.381164759
          -4018549.0726918234 -3800369.6312512644 -3531650.86846162 -3236442.6963144415 -2938795.0268012797 -2639406.434015291
          -2338975.492049633 -2040119.0395845715 -1745453.9153003716 -1456036.1570718698 -1172921.8027739027 -895511.7578972373
          -623206.927932641 -374179.84035298415 -166603.02263113702 125509.21913738176 628142.5788570535 503573.95085271174
          -1085919.77055081 -7188429.86910514 -20852047.628561907 -239845433.2293053 -164915501.40227383 -113067818.34483582
          -76594659.84860714 -47788301.705203645 -26389681.315773744 -12139736.081465846 -4605011.179222805 -3352051.785987499
          -4648933.94504575 -4763733.699683384 -4357454.473699763 -4091099.6908942526 -3868981.2522458313 -3595411.058733475
          -3294873.217845541 -2991851.8370703864 -2687058.10250832 -2381203.2002596525 -2076951.2132325913 -1776966.2243353464
          -1482323.3370762095 -1194097.6549634715 -911679.2674738038 -634458.2640838778 -380935.2578750917 -169610.86192884322
          127775.15497484681 639483.0240559581 512665.4423706149 -1105524.8930250583 -7318209.302597105 -21228509.10681157
          -243965811.709771 -167748635.53278744 -115010245.17800695 -77910503.07175401 -48609271.640353076 -26843037.76847492
          -12348288.340790264 -4684122.08107498 -3409637.7131049437 -4728799.4100955585 -4845571.345262229 -4432312.523631449
          -4161381.9502297197 -3935447.6707372814 -3657177.730834373 -3351476.8580292 -3043249.7798299706 -2733219.900023343
          -2422110.622395978 -2112631.7969575757 -1807493.2737178376 -1507788.6257207994 -1214611.4260104946 -927341.2862247856
          -645357.8180015346 -387479.4621408619 -172524.65944288854 129970.24327509438 650468.8991957958 521472.6792869506
          -1124517.0454837054 -7443931.071514139 -21593200.195202317 -247931356.68698186 -170475307.57976386 -116879680.47744246
          -79176900.20387594 -49399391.58292245 -27279358.22238538 -12549003.730068108 -4760260.195188741 -3465059.7069653785
          -4805663.732321735 -4924333.738181526 -4504357.596450227 -4229023.179033317 -3999416.4482845934 -3716623.3665578547
          -3405953.4755300144 -3092716.316877989 -2777647.0529629164 -2461480.846145933 -2146971.59372383 -1836873.1929933978
          -1532296.992493509 -1234354.3407630352 -942414.7653303188 -655847.7937237027 -393777.751296419 -175328.96340170107
          132082.84603305135 661041.9530804384 529948.9626880334 -1142795.520196591 -7564928.531186282 -21944187.105893884
          -251719859.68318665 -173080247.19829497 -118665654.73191449 -80386758.96437739 -50154236.57601575 -27696199.125138544
          -12740758.170054708 -4832999.1198718175 -3518007.3836974553 -4879096.443234807 -4999579.78018706 -4573186.21341138
          -4293644.561764928 -4060529.3364806375 -3773415.0487914407 -3457997.9815881047 -3139974.4177614 -2820090.753283773
          -2499093.38412767 -2179778.2883823197 -1864941.44413695 -1555711.1818363308 -1253215.8319252315 -956815.2880270365
          -665869.4437651278 -399794.85281556135 -178008.06885439248 134101.13175406447 671142.9726454951 538046.8221947079
          -1160257.9512234882 -7680524.05237088 -22279504.186009258 -255308997.42310584 -175548105.10981113 -120357644.3123152
          -81532950.41182035 -50869358.78952893 -28091104.293117832 -12922421.770263966 -4901910.2481412385 -3568168.753923572
          -4948664.848373956 -5070866.092255379 -4638392.80954988 -4354865.3242395 -4118426.2346680565 -3827218.139179369
          -3507303.710105125 -3184745.6197770135 -2860300.9066252084 -2534726.6090798858 -2210858.5715739876 -1891532.6385404577
          -1577893.2286799494 -1271084.760693116 -970458.001271245 -675363.7171056212 -405495.31204152695 -180546.18992424366
          136013.20747390477 680712.4383805945 545718.5416865839 -1176801.443717368 -7790036.503191699 -22597175.62209684
          -258676603.2527665 -177863639.72867373 -121945199.4261639 -82608395.62418774 -51540341.60169593 -28461634.777364217
          -13092872.5698683 -4966567.9827524 -3615234.0195607664 -5013939.290980489 -5137752.407698666 -4699574.666675771
          -4412307.364872283 -4172749.569525151 -3877700.3478713213 -3553566.14707404 -3226753.414296553 -2898029.173544251
          -2568160.4488225277 -2240020.490242847 -1916482.5479166724 -1598706.1357878132 -1287850.767800077 -983258.6470536774
          -684271.9766488264 -410843.9226094139 -182927.65095932956 137807.2642648309 689691.2490264719 552916.7404578588
          -1192323.8243087435 -7892789.530400039 -22895239.462942723 -261800960.41208407 -180011918.8122872 -123418082.36999317
          -83606159.35338534 -52162858.0306472 -28805401.12999988 -13251011.379664507 -5026555.36480256 -3658899.670575502
          -5074498.834907967 -5199807.3957245955 -4756337.240371522 -4465600.25619489 -4223149.025170905 -3924536.1292757713
          -3596486.9589837235 -3265726.9047689917 -2933032.25493434 -2599179.2977825347 -2267075.9872187683 -1939630.2771482354
          -1618015.6863985392 -1303405.733797284 -995134.6774183653 -692536.775335677 -415806.19262802525 -185137.0943742157
          139471.73297072723 698021.5029517792 559594.9995445985 -1206724.9932751565 -7988120.507979924 -23171773.577042136
          -264661111.5124115 -181978532.25373942 -124766413.42130725 -84519548.85506214 -52732732.39495135 -29120097.453854438
          -13395777.444650946 -5081470.0140491305 -3698872.808757257 -5129937.262047327 -5256614.807191341 -4808299.781684291
          -4514386.523021159 -4269286.534867777 -3967411.3208899675 -3635778.243962341 -3301404.666959504 -2965075.3590616155
          -2627575.089448831 -2291843.5811513932 -1960820.5571995468 -1635692.3570044157 -1317645.3199771238 -1006006.4310232046
          -700102.675048192 -420348.83650247904 -187159.69983645855 140995.44870755268 705647.3228872379 565708.5228308561
          -1219908.3513333334 -8075389.980202709 -23424923.044374645 -267237177.33313903 -183749811.2843477 -125980821.12686591
          -85342215.69771779 -53246003.83392751 -29403536.480124474 -13526164.580938065 -5130930.250781384 -3734875.6040675193
          -5179869.252322129 -5307779.807070867 -4855101.129464215 -4558327.080652652 -4310841.42390254 -4006027.9224802316
          -3671166.911423165 -3333538.72576877 -2993935.7732095607 -2653150.461438047 -2314151.127132895 -1979906.1069727703
          -1651613.287544334 -1330470.5554342489 -1015798.3447892294 -706917.0897559889 -424440.28107828693 -188981.40949988322
          142367.8209291571 712515.7061587685 571214.8187200895 -1231782.2688557417 -8153991.388624463 -23652928.372641813
          -269510676.98223853 -185313048.6138618 -127052593.23370108 -86068258.00712302 -53698990.09949431 -29653684.795904357
          -13641237.381442608 -5174581.243577714 -3766649.769778318 -5223936.589907975 -5352935.333830235 -4896405.527341052
          -4597106.696236381 -4347515.5743816495 -4040108.895642282 -3702399.0803993912 -3361898.549034084 -3019406.4505862277