<?xml version="1.0"?>
<VTKFile type="UnstructuredGrid" version="0.1" byte_order="LittleEndian" header_type="UInt32" compressor="vtkZLibDataCompressor">
  <UnstructuredGrid>
    <Piece NumberOfPoints="405" NumberOfCells="320">
      <PointData>
        <DataArray type="Float64" Name="p" format="ascii" RangeMin="-10.582485326" RangeMax="9.1534633899">
          1.1652643874 0.80169767142 0.67316806317 0.3039472801 0.0061881076984 0.0015896554644
          0.1099351098 0.074574457506 0.31806836184 0.25474890499 0.25567055139 0.18915709611
          0.1046145918 0.0035790057399 -0.099656348232 -0.18812704635 -0.2379059546 -0.27586538616
          0.19817542035 0.17559445064 0.1366404725 0.07293043975 0.001368104658 -0.064819944566
          -0.11838820441 -0.15682926743 -0.16416312064 0.11257789016 0.10664672818 0.08064452899
          0.043928390347 -0.00099271806284 -0.047626657356 -0.088703715564 -0.11446801683 -0.12665650522
          0.082321596711 0.074983191562 0.057866132472 0.031242816945 0.00061800897573 -0.02928149971
          -0.054172291139 -0.071162150496 -0.076508548374 0.049062336384 0.045603726536 0.034724832187
          0.01874499141 -0.00045301245415 -0.019816863201 -0.036623508282 -0.047522753567 -0.051886845519
          0.030349065618 0.027868583037 0.021423210048 0.011602393554 0.00019324567159 -0.011144526439
          -0.020679168938 -0.027064970603 -0.029289089163 0.013482798885 0.012464637361 0.0095068997219
          0.0050935324364 -0.00015809266742 -0.0054080097926 -0.0099268837798 -0.012896342898 -0.014028346489
          -0.00017216644056 -7.544278967e-05 -9.0882943249e-05 -9.4203310655e-05 -0.00011035581069 -0.00010219045747
          -0.00010016288151 -0.00010342798552 -0.00014415203037 -0.4017125791 0.67764189185 1.1846900951
          1.1240599396 -0.72294211536 0.96126162496 0.89015700741 0.29511552149 -0.85249488565
          -0.0087627463027 -0.53349011507 -1.1133532434 -1.484152936 -1.4120023374 -1.6763635265
          -1.4892799991 -1.0849786231 -0.72563840242 1.1400204836 1.4027019105 1.4766245333
          1.1991538915 0.7786864126 0.90828950216 0.89922868529 0.55674115529 0.056980766901
          0.043226248239 -0.20590176252 -0.25546319971 -0.10556948501 -0.0095870768178 -0.43654586445
          -0.90064163107 -1.1323098318 -1.1346598352 0.92088040372 0.64636142607 0.33888762308
          0.037884496539 -0.24760242158 -0.30495456177 -0.32960633589 -0.32062652389 -0.32089473777
          0.52334598087 0.60646636138 0.53172383018 0.37813879782 0.22111792775 0.032510410418
          -0.14027227956 -0.34933646813 -0.65623055547 0.46602133777 0.24577886471 0.10812213578
          -0.014383633364 -0.14807176992 -0.3497480454 -0.5349903707 -0.64207690726 -0.61223634438
          0.52738724082 0.50469131795 0.40912376795 0.2520521995 0.077064299042 -0.068580415382
          -0.19892182281 -0.31237007191 -0.42851089253 1.1652643874 0.80169767142 0.67316806317
          0.3039472801 0.0061881076984 0.0015896554644 0.1099351098 0.074574457506 0.31806836184
          -0.85249488565 -0.20314567083 -0.48067684776 -0.56350790903 -0.5316588775 -0.47217306941
          -0.47931454774 -0.65839538947 0.1094704884 -0.72563840242 -0.94745120643 -0.86285544974
          -0.70031912261 -0.50178868561 -0.29607527432 -0.11398951635 0.0014074229994 -0.16961489564
          0.056980766901 -0.040513623547 -0.38716614323 -0.70719897031 -0.93965857986 -1.167813124
          -1.4677561504 -1.7650685368 -1.7925771107 -1.1346598352 -0.97543112073 -0.85786720252
          -0.95238763719 -1.1864321635 -1.4357070571 -1.5674200741 -1.5227304224 -1.4389597023
          -0.32089473777 -0.78784911065 -1.0309186962 -1.2080352263 -1.4567962924 -1.7615801503
          -2.09569311 -2.5644482749 -3.2682706815 -0.65623055547 -0.60701998058 -0.89176058325
          -1.2473661382 -1.640848951 -2.1463300151 -2.8092713442 -3.5970789054 -4.2224577294
          -0.61223634438 -0.84756782967 -0.98681362192 -1.3172504208 -1.7772924407 -2.4063068016
          -3.2580751465 -4.2893592632 -5.68771682 -0.42851089253 -0.59957258143 -0.90536273313
          -1.3037776344 -1.8568097798 -2.6437964076 -3.8019385835 -5.4905860776 -8.1152345275
          0.31806836184 -0.53810842932 -0.77442733877 -1.2723942573 -1.8747968864 -2.836902104
          -4.2448528136 -6.7322064677 -10.582485326 0.1094704884 -0.99575560212 -1.5023928472
          -1.4104187886 0.48172668528 -1.182245802 -1.0937786555 -0.5136574114 0.60548504616
          -0.16961489564 0.37335940593 0.99810216849 1.4341131338 1.4377589049 1.7893377045
          1.6876714965 1.3439580928 1.0083987445 -1.7925771107 -1.9341588556 -1.8617498572
          -1.3986266171 -0.76172884362 -0.67870166915 -0.4922564845 -0.0053139605444 0.62753941243
          -1.4389597023 -0.98161730636 -0.59280100389 -0.332036479 0.015279741913 0.89313702468
          1.7911828443 2.3891817911 2.6115325358 -3.2682706815 -2.5703635452 -1.7378444717
          -0.77632207841 0.24315970797 1.0417838954 1.7436555308 2.2806357005 2.7361806208
          -4.2224577294 -3.6438198609 -2.6541379053 -1.5010345128 -0.24900809801 1.057525673
          2.2883787826 3.4845213017 4.5061587997 -5.68771682 -4.4862864149 -3.0738292521
          -1.5436137686 0.09729559324 1.8367320433 3.5109590365 4.9860602674 6.0051219065
          -8.1152345275 -6.4923173065 -4.3824400583 -2.3259079629 -0.16632669852 2.0330619794
          4.2321591751 6.5429225862 8.3371570076 -10.582485326 -8.1504411627 -5.5400808475
          -2.7679322923 -0.11093563485 2.2610425475 4.7082521047 7.4408712433 9.1534633899
          0.60548504616 -0.084992617738 0.13590819726 0.16387100987 0.10736143827 0.053258220395
          0.095254299712 0.31531778564 -0.4017125791 1.0083987445 1.2024082365 1.0733426762
          0.85552127696 0.5887881901 0.30640908012 0.046573942683 -0.13587006833 -0.0087627463027
          0.62753941243 0.61397388864 0.80562051555 0.92908379431 0.94587922678 0.96039151892
          1.0706836458 1.2210535115 1.1400204836 2.6115325358 2.1628858673 1.6961387812
          1.4130085025 1.2439550571 1.0885729561 0.83655022201 0.43015629377 0.043226248239
          2.7361806208 2.6828993989 2.3316131316 1.874993786 1.4879655084 1.1577563411
          0.85926415569 0.73672156663 0.92088040372 4.5061587997 3.4207282092 2.7554257305
          2.1876425317 1.6990508817 1.3246413147 1.0691777106 0.91321805941 0.52334598087
          6.0051219065 4.6849081324 3.4207308921 2.4884966879 1.8229034712 1.3352276378
          0.93622700881 0.59248381976 0.46602133777 8.3371570076 5.5414742257 3.9051060127
          2.7146346859 1.9117230996 1.3586719756 0.94452773943 0.7364995052 0.52738724082
          9.1534633899 6.9019162653 4.1961472746 2.9191141844 1.9323959923 1.3443964953
          0.96600431902 0.66729208722 1.1652643874
        </DataArray>
        <DataArray type="Float64" Name="u" NumberOfComponents="3" format="ascii" RangeMin="0.28452879039" RangeMax="1.3807152166">
          0.79673975162 0 0 0.79691711153 -0.00080221104115 0
          0.79724122893 -0.0017247393564 0 0.79791567163 -0.0026764959335 0
          0.79909606104 -0.0036300229482 0 0.80071141214 -0.0040241730954 0
          0.80239776193 -0.0033954872535 0 0.80364064793 -0.0019613762174 0
          0.80404102301 0 0 0.7978992589 0 0
          0.7979893183 -0.00069124853041 0 0.79827003993 -0.0013532189753 0
          0.79878335143 -0.0019862273344 0 0.79960353356 -0.0024456973238 0
          0.80067177168 -0.0025313273172 0 0.80175617861 -0.0021011873823 0
          0.80254103954 -0.0011778606986 0 0.80282323069 0 0
          0.79849344258 0 0 0.79857158051 -0.00050408192515 0
          0.79881516624 -0.00098399405072 0 0.79923489994 -0.0013866201561 0
          0.79982158056 -0.0016423352851 0 0.80051539087 -0.0016473600977 0
          0.80118013051 -0.0013374911495 0 0.80166101066 -0.00075130009014 0
          0.80183543284 0 0 0.79893991151 0 0
          0.7990051897 -0.00036586903965 0 0.79919627822 -0.00069812533841 0
          0.79950811518 -0.00095909206917 0 0.7999208133 -0.0010969806606 0
          0.80038154765 -0.0010676667955 0 0.80080962436 -0.00085285579489 0
          0.80111324199 -0.00047346495195 0 0.80121999461 0 0
          0.79924715718 0 0 0.7992960535 -0.0002505563148 0
          0.7994417323 -0.00047386383664 0 0.79967218241 -0.00064085259476 0
          0.79996293544 -0.00072287777969 0 0.80027549616 -0.00069472568907 0
          0.80055630364 -0.00054833527177 0 0.8007525703 -0.00030249394103 0
          0.8008224597 0 0 0.79945882028 0 0
          0.79949648674 -0.0001654129098 0 0.79960568089 -0.00031080213598 0
          0.79977484567 -0.00041566755475 0 0.79998371006 -0.0004618180871 0
          0.80020228461 -0.00043762287597 0 0.80039533949 -0.0003422919379 0
          0.80052842999 -0.00018800914754 0 0.80057500127 0 0
          0.79959170058 0 0 0.79962088908 -9.9258519294e-05 0
          0.79970562265 -0.00018547898827 0 0.79983505886 -0.00024675714911 0
          0.79999191492 -0.00027291057388 0 0.80015348889 -0.00025748376366 0
          0.80029391869 -0.00020046275559 0 0.80038971175 -0.00010958562444 0
          0.8004232471 0 0 0.79966587509 0 0
          0.79969022896 -4.6545816246e-05 0 0.79976072076 -8.690190821e-05 0
          0.79986759737 -0.00011512494145 0 0.79999595555 -0.00012660339713 0
          0.80012672082 -0.00011879838993 0 0.80023944859 -9.2145423884e-05 0
          0.80031586371 -5.0343332754e-05 0 0.8003425586 0 0
          0.79968927893 0 0 0.79971206486 -1.7152696086e-07 0
          0.79977797046 -3.323493548e-07 0 0.79987761345 -3.2683903091e-07 0
          0.79999686685 -2.3937254745e-07 0 0.80011796254 -1.1859516802e-07 0
          0.80022201716 -1.0145472855e-08 0 0.80029237444 -1.0828571652e-08 0
          0.80031695097 0 0 0.84413957053 0.46556620758 0
          0.66602821253 0.44798360216 0 0.48591535575 0.35730878726 0
          0.34431211378 0.17875039996 0 0.28320240161 -0.027441433653 0
          0.35370015937 -0.23183009134 0 0.50268240322 -0.40558766156 0
          0.68713007165 -0.4899676742 0 0.86652591844 -0.50115783115 0
          0.78907874463 0.0098191192743 0 0.78447047133 0.014843594324 0
          0.77362186518 0.016495843437 0 0.75977398043 0.0089331838012 0
          0.75463323589 -0.013628427322 0 0.76240326885 -0.035873856817 0
          0.7783391924 -0.042799177809 0 0.79070132232 -0.040683095195 0
          0.79652098003 -0.035564868595 0 0.80010842632 0.0055628245864 0
          0.79496119913 0.0057687071122 0 0.7890426191 0.0034326873801 0
          0.78420412108 -0.0028921666666 0 0.78293487242 -0.010939250487 0
          0.78711137979 -0.018830378488 0 0.79464921351 -0.024771508484 0
          0.80297652147 -0.026636336285 0 0.81021526197 -0.025965075075 0
          0.79422934407 -0.0028032661421 0 0.79416943635 -0.001802665863 0
          0.79260991043 -0.0018351040502 0 0.79078275245 -0.004078502747 0
          0.79088789926 -0.0087764320086 0 0.79390949503 -0.013237411899 0
          0.79866176773 -0.014848465047 0 0.80284639593 -0.014024160761 0
          0.80524415112 -0.012100018264 0 0.79695479082 -0.0014416642376 0
          0.79646422917 -0.0021607976727 0 0.79602717118 -0.002954941618 0
          0.79531214883 -0.0045619879649 0 0.79569431912 -0.0072514450403 0
          0.79853036858 -0.0096320522851 0 0.80226191629 -0.010383196697 0
          0.80541496869 -0.0099200599916 0 0.80827503147 -0.0090930438283 0
          0.79531197349 -0.0019037320015 0 0.79558716612 -0.0018829874933 0
          0.79534140422 -0.0025413829611 0 0.79559898718 -0.0040399456944 0
          0.79683917256 -0.0060188685934 0 0.79880137544 -0.0076054155486 0
          0.80151025423 -0.0079879461231 0 0.80431374206 -0.0069574712062 0
          0.80610807588 -0.0048576936927 0 0.7968253752 -0.00089696013832 0
          0.79707051931 -0.0018564261378 0 0.7973758828 -0.0025757106254 0
          0.79744746729 -0.0036281061534 0 0.79819891823 -0.0050532775908 0
          0.80055262879 -0.0060161306731 0 0.803289372 -0.0057539520976 0
          0.80526580156 -0.0044878830859 0 0.80669210406 -0.0029847194352 0
          0.79635781762 -0.00046022794601 0 0.79661591442 -0.0011612091031 0
          0.79677834682 -0.0020168365758 0 0.79741248334 -0.0030903338214 0
          0.79864047269 -0.0042701613046 0 0.80037469906 -0.0049274182359 0
          0.80234853362 -0.0045317629961 0 0.80411483848 -0.0031579578725 0
          0.80504702965 -0.0011668601727 0 0.79673975162 0 0
          0.79691711153 -0.00080221104115 0 0.79724122893 -0.0017247393564 0
          0.79791567163 -0.0026764959335 0 0.79909606104 -0.0036300229482 0
          0.80071141214 -0.0040241730954 0 0.80239776193 -0.0033954872535 0
          0.80364064793 -0.0019613762174 0 0.80404102301 0 0
          0.86652591844 -0.50115783115 0 1.0400362134 -0.49621135406 0
          1.2072364268 -0.40215319059 0 1.335892794 -0.23023587549 0
          1.3807049541 -0.0053234347486 0 1.3268548801 0.217254747 0
          1.1913569321 0.38291353238 0 1.0206859132 0.46854604601 0
          0.84623698525 0.46534604799 0 0.79652098003 -0.035564868595 0
          0.80272304707 -0.038871246466 0 0.81660178374 -0.041509008211 0
          0.83311882441 -0.033862346076 0 0.84093315551 -0.015484464874 0
          0.83277653506 0.0024335210931 0 0.81638189781 0.0090545831893 0
          0.80301723217 0.0054109152081 0 0.79744596068 0.0013324751849 0
          0.81021526197 -0.025965075075 0 0.81694332876 -0.027647842892 0
          0.82386259416 -0.026119194138 0 0.83008942359 -0.021716458256 0
          0.83321939922 -0.014684167213 0 0.8316810281 -0.0080737798807 0
          0.82703428058 -0.0047912846071 0 0.82155656981 -0.0048213437221 0
          0.8159125304 -0.0082529495971 0 0.80524415112 -0.012100018264 0
          0.80790939375 -0.014251062202 0 0.81267672425 -0.015942818716 0
          0.81800636856 -0.015396821661 0 0.82137299459 -0.013042721794 0
          0.82153807569 -0.011262863973 0 0.81964073841 -0.012305073812 0
          0.81802396455 -0.016424203015 0 0.81808177587 -0.021642860068 0
          0.80827503147 -0.0090930438283 0 0.81109955212 -0.010021624103 0
          0.81440422918 -0.010901507352 0 0.8184148545 -0.011251840563 0
          0.82197198545 -0.010826282163 0 0.82412045518 -0.011128050089 0
          0.82579257555 -0.013607204555 0 0.8280531239 -0.017948844465 0
          0.83024921363 -0.023332254079 0 0.80610807588 -0.0048576936927 0
          0.80870924449 -0.0064256739044 0 0.81255959648 -0.0075388154914 0
          0.81697853117 -0.0080372396121 0 0.82124316937 -0.0082962947758 0
          0.82495601369 -0.0093294361556 0 0.82886128869 -0.012250792554 0
          0.83361723542 -0.017584382949 0 0.84001222866 -0.02561503734 0
          0.80669210406 -0.0029847194352 0 0.80908101898 -0.0034964801073 0
          0.81243050871 -0.0043912609506 0 0.81693103695 -0.0050489061749 0
          0.82189906294 -0.0055947512462 0 0.82716154263 -0.0067838854509 0
          0.8338204545 -0.0097817191087 0 0.8431497901 -0.015172094076 0
          0.85551889656 -0.022661632833 0 0.80504702965 -0.0011668601727 0
          0.80779508572 -0.0016960958806 0 0.81152678003 -0.0021495662057 0
          0.8164133103 -0.002410690171 0 0.82205825234 -0.0028160909214 0
          0.82869335863 -0.0034876782069 0 0.83792516268 -0.005516251116 0
          0.85159474186 -0.008941785333 0 0.87363604586 -0.018125911104 0
          0.80404102301 0 0 0.80664974565 0 0
          0.81065541914 0 0 0.81583381492 0 0
          0.82210264885 0 0 0.8299790897 0 0
          0.84116603569 0 0 0.86106095307 0 0
          0.9 0 0 0.84623698525 0.46534604799 0
          0.66810807211 0.44653331126 0 0.48782667045 0.35462114274 0
          0.34579255068 0.17498234166 0 0.2842942509 -0.031871638261 0
          0.35454095512 -0.23648812681 0 0.50291831644 -0.41011111042 0
          0.68674671731 -0.49392274961 0 0.86568312203 -0.50391545211 0
          0.79744596068 0.0013324751849 0 0.79116387142 0.0056098905001 0
          0.77832338906 0.0066912207789 0 0.76228700833 -0.0011869872682 0
          0.75479857803 -0.023739461852 0 0.76011037618 -0.045636858893 0
          0.773632237 -0.05200529608 0 0.78380298256 -0.049286569179 0
          0.78785875517 -0.043558682396 0 0.8159125304 -0.0082529495971 0
          0.80763532363 -0.009444950861 0 0.79801356255 -0.012997545474 0
          0.78890598834 -0.020140830516 0 0.78302216091 -0.028514344931 0
          0.78258074012 -0.036209590249 0 0.78585813626 -0.041467531665 0
          0.79050554658 -0.042196453824 0 0.79460553779 -0.040117801756 0
          0.81808177587 -0.021642860068 0 0.81357410854 -0.023281422325 0
          0.80631282824 -0.025546900631 0 0.79795784954 -0.029328602912 0
          0.79105720714 -0.034596780393 0 0.78704872061 -0.03857903469 0
          0.78519528406 -0.038708903245 0 0.7835611515 -0.035676971627 0
          0.78141609725 -0.031156175042 0 0.83024921363 -0.023332254079 0
          0.82358102237 -0.028314293266 0 0.81541379231 -0.03265413996 0
          0.80549214134 -0.036642799722 0 0.79592630595 -0.040243645761 0
          0.78876320495 -0.041914333383 0 0.78315905804 -0.040443042558 0
          0.77843683583 -0.036537135397 0 0.77497965903 -0.031432772226 0
          0.84001222866 -0.02561503734 0 0.83222607827 -0.033910108996 0
          0.82134304963 -0.041003773639 0 0.80926143708 -0.046629618888 0
          0.79719926561 -0.050104565771 0 0.78573783469 -0.050607946042 0
          0.77581766443 -0.047112772839 0 0.7676455688 -0.039648879203 0
          0.76110276413 -0.029113805298 0 0.85551889656 -0.022661632833 0
          0.8449443687 -0.034830556737 0 0.83133606408 -0.043626786315 0
          0.8151780315 -0.049812944794 0 0.79869145487 -0.05308366355 0
          0.7836110318 -0.052673519229 0 0.76962402926 -0.047553647981 0
          0.75716634749 -0.03823423435 0 0.74743961985 -0.025287385197 0
          0.87363604586 -0.018125911104 0 0.85874336138 -0.045610001203 0
          0.83964654167 -0.062111552563 0 0.81980110397 -0.072103204742 0
          0.79938388603 -0.076784452873 0 0.77902937006 -0.075305948771 0
          0.75955657844 -0.06647104513 0 0.741232804 -0.048990996839 0
          0.72640555082 -0.019358362256 0 0.9 0 0
          0.875 0 0 0.85 0 0
          0.825 0 0 0.8 0 0
          0.775 0 0 0.75 0 0
          0.725 0 0 0.7 0 0
          0.86568312203 -0.50391545211 0 1.0385210526 -0.49838358871 0
          1.204417023 -0.40416320671 0 1.3320241724 -0.23232243222 0
          1.3763186039 -0.0076781288884 0 1.3226415015 0.21476041702 0
          1.1877805184 0.38085124906 0 1.017705149 0.46765269865 0
          0.84413957053 0.46556620758 0 0.78785875517 -0.043558682396 0
          0.79346191704 -0.045142889896 0 0.80693962965 -0.045817545572 0
          0.8232662274 -0.036042550998 0 0.83111780275 -0.01540356591 0
          0.82318372983 0.0048450774716 0 0.80712932176 0.013734054821 0
          0.79419633331 0.012137324646 0 0.78907874463 0.0098191192743 0
          0.79460553779 -0.040117801756 0 0.80089448491 -0.038615091795 0
          0.8075804351 -0.033620039643 0 0.81368154673 -0.025583946553 0
          0.81676341696 -0.014854798611 0 0.8152313559 -0.0045396402019 0
          0.81064671647 0.0023852959814 0 0.80533917536 0.0058177295519 0
          0.80010842632 0.0055628245864 0 0.78141609725 -0.031156175042 0
          0.78464623793 -0.028388630238 0 0.78997283326 -0.025282426088 0
          0.7957593834 -0.020047375924 0 0.7993019521 -0.013068573712 0
          0.7992921846 -0.0066752974708 0 0.7969388185 -0.0030629354764 0
          0.79475231615 -0.0024351162532 0 0.79422934407 -0.0028032661421 0
          0.77497965903 -0.031432772226 0 0.78017178496 -0.026159266726 0
          0.78569036264 -0.021241081692 0 0.79116277756 -0.016337108434 0
          0.79523217298 -0.01094674972 0 0.79688734629 -0.0062955201078 0
          0.79710944186 -0.0035565836637 0 0.79716641486 -0.0021722125333 0
          0.79695479082 -0.0014416642376 0 0.76110276413 -0.029113805298 0
          0.76978026861 -0.022575417603 0 0.77823584717 -0.017413179048 0
          0.78566320619 -0.012749593353 0 0.79090713667 -0.0083400883524 0
          0.79368805102 -0.0047217628286 0 0.79464897644 -0.0025506403124 0
          0.79485551365 -0.0017344142778 0 0.79531197349 -0.0019037320015 0
          0.74743961985 -0.025287385197 0 0.76145874806 -0.017670190271 0
          0.77310153752 -0.0124885788 0 0.78250135443 -0.0088226371604 0
          0.78905743934 -0.0056645548486 0 0.79281842 -0.0031615326448 0
          0.79469043459 -0.0018975615861 0 0.79591112959 -0.0013624705156 0
          0.7968253752 -0.00089696013832 0 0.72640555082 -0.019358362256 0
          0.75136624432 -0.010414672809 0 0.76780946044 -0.0070439472162 0
          0.77988228144 -0.0045001290969 0 0.78778430639 -0.0028396985648 0
          0.79227081246 -0.0014288163036 0 0.79452215011 -0.00073381086134 0
          0.79570433768 -0.00040099838784 0 0.79635781762 -0.00046022794601 0
          0.7 0 0 0.74043865753 0 0
          0.76404365788 0 0 0.77793553287 0 0
          0.78756917391 0 0 0.7922577375 0 0
          0.79483279784 0 0 0.79586988886 0 0
          0.79673975162 0 0
        </DataArray>
        <DataArray type="Float64" Name="u_x" format="ascii" RangeMin="0.28320240161" RangeMax="1.3807049541">
          0.79673975162 0.79691711153 0.79724122893 0.79791567163 0.79909606104 0.80071141214
          0.80239776193 0.80364064793 0.80404102301 0.7978992589 0.7979893183 0.79827003993
          0.79878335143 0.79960353356 0.80067177168 0.80175617861 0.80254103954 0.80282323069
          0.79849344258 0.79857158051 0.79881516624 0.79923489994 0.79982158056 0.80051539087
          0.80118013051 0.80166101066 0.80183543284 0.79893991151 0.7990051897 0.79919627822
          0.79950811518 0.7999208133 0.80038154765 0.80080962436 0.80111324199 0.80121999461
          0.79924715718 0.7992960535 0.7994417323 0.79967218241 0.79996293544 0.80027549616
          0.80055630364 0.8007525703 0.8008224597 0.79945882028 0.79949648674 0.79960568089
          0.79977484567 0.79998371006 0.80020228461 0.80039533949 0.80052842999 0.80057500127
          0.79959170058 0.79962088908 0.79970562265 0.79983505886 0.79999191492 0.80015348889
          0.80029391869 0.80038971175 0.8004232471 0.79966587509 0.79969022896 0.79976072076
          0.79986759737 0.79999595555 0.80012672082 0.80023944859 0.80031586371 0.8003425586
          0.79968927893 0.79971206486 0.79977797046 0.79987761345 0.79999686685 0.80011796254
          0.80022201716 0.80029237444 0.80031695097 0.84413957053 0.66602821253 0.48591535575
          0.34431211378 0.28320240161 0.35370015937 0.50268240322 0.68713007165 0.86652591844
          0.78907874463 0.78447047133 0.77362186518 0.75977398043 0.75463323589 0.76240326885
          0.7783391924 0.79070132232 0.79652098003 0.80010842632 0.79496119913 0.7890426191
          0.78420412108 0.78293487242 0.78711137979 0.79464921351 0.80297652147 0.81021526197
          0.79422934407 0.79416943635 0.79260991043 0.79078275245 0.79088789926 0.79390949503
          0.79866176773 0.80284639593 0.80524415112 0.79695479082 0.79646422917 0.79602717118
          0.79531214883 0.79569431912 0.79853036858 0.80226191629 0.80541496869 0.80827503147
          0.79531197349 0.79558716612 0.79534140422 0.79559898718 0.79683917256 0.79880137544
          0.80151025423 0.80431374206 0.80610807588 0.7968253752 0.79707051931 0.7973758828
          0.79744746729 0.79819891823 0.80055262879 0.803289372 0.80526580156 0.80669210406
          0.79635781762 0.79661591442 0.79677834682 0.79741248334 0.79864047269 0.80037469906
          0.80234853362 0.80411483848 0.80504702965 0.79673975162 0.79691711153 0.79724122893
          0.79791567163 0.79909606104 0.80071141214 0.80239776193 0.80364064793 0.80404102301
          0.86652591844 1.0400362134 1.2072364268 1.335892794 1.3807049541 1.3268548801
          1.1913569321 1.0206859132 0.84623698525 0.79652098003 0.80272304707 0.81660178374
          0.83311882441 0.84093315551 0.83277653506 0.81638189781 0.80301723217 0.79744596068
          0.81021526197 0.81694332876 0.82386259416 0.83008942359 0.83321939922 0.8316810281
          0.82703428058 0.82155656981 0.8159125304 0.80524415112 0.80790939375 0.81267672425
          0.81800636856 0.82137299459 0.82153807569 0.81964073841 0.81802396455 0.81808177587
          0.80827503147 0.81109955212 0.81440422918 0.8184148545 0.82197198545 0.82412045518
          0.82579257555 0.8280531239 0.83024921363 0.80610807588 0.80870924449 0.81255959648
          0.81697853117 0.82124316937 0.82495601369 0.82886128869 0.83361723542 0.84001222866
          0.80669210406 0.80908101898 0.81243050871 0.81693103695 0.82189906294 0.82716154263
          0.8338204545 0.8431497901 0.85551889656 0.80504702965 0.80779508572 0.81152678003
          0.8164133103 0.82205825234 0.82869335863 0.83792516268 0.85159474186 0.87363604586
          0.80404102301 0.80664974565 0.81065541914 0.81583381492 0.82210264885 0.8299790897
          0.84116603569 0.86106095307 0.9 0.84623698525 0.66810807211 0.48782667045
          0.34579255068 0.2842942509 0.35454095512 0.50291831644 0.68674671731 0.86568312203
          0.79744596068 0.79116387142 0.77832338906 0.76228700833 0.75479857803 0.76011037618
          0.773632237 0.78380298256 0.78785875517 0.8159125304 0.80763532363 0.79801356255
          0.78890598834 0.78302216091 0.78258074012 0.78585813626 0.79050554658 0.79460553779
          0.81808177587 0.81357410854 0.80631282824 0.79795784954 0.79105720714 0.78704872061
          0.78519528406 0.7835611515 0.78141609725 0.83024921363 0.82358102237 0.81541379231
          0.80549214134 0.79592630595 0.78876320495 0.78315905804 0.77843683583 0.77497965903
          0.84001222866 0.83222607827 0.82134304963 0.80926143708 0.79719926561 0.78573783469
          0.77581766443 0.7676455688 0.76110276413 0.85551889656 0.8449443687 0.83133606408
          0.8151780315 0.79869145487 0.7836110318 0.76962402926 0.75716634749 0.74743961985
          0.87363604586 0.85874336138 0.83964654167 0.81980110397 0.79938388603 0.77902937006
          0.75955657844 0.741232804 0.72640555082 0.9 0.875 0.85
          0.825 0.8 0.775 0.75 0.725 0.7
          0.86568312203 1.0385210526 1.204417023 1.3320241724 1.3763186039 1.3226415015
          1.1877805184 1.017705149 0.84413957053 0.78785875517 0.79346191704 0.80693962965
          0.8232662274 0.83111780275 0.82318372983 0.80712932176 0.79419633331 0.78907874463
          0.79460553779 0.80089448491 0.8075804351 0.81368154673 0.81676341696 0.8152313559
          0.81064671647 0.80533917536 0.80010842632 0.78141609725 0.78464623793 0.78997283326
          0.7957593834 0.7993019521 0.7992921846 0.7969388185 0.79475231615 0.79422934407
          0.77497965903 0.78017178496 0.78569036264 0.79116277756 0.79523217298 0.79688734629
          0.79710944186 0.79716641486 0.79695479082 0.76110276413 0.76978026861 0.77823584717
          0.78566320619 0.79090713667 0.79368805102 0.79464897644 0.79485551365 0.79531197349
          0.74743961985 0.76145874806 0.77310153752 0.78250135443 0.78905743934 0.79281842
          0.79469043459 0.79591112959 0.7968253752 0.72640555082 0.75136624432 0.76780946044
          0.77988228144 0.78778430639 0.79227081246 0.79452215011 0.79570433768 0.79635781762
          0.7 0.74043865753 0.76404365788 0.77793553287 0.78756917391 0.7922577375
          0.79483279784 0.79586988886 0.79673975162
        </DataArray>
        <DataArray type="Float64" Name="u_y" format="ascii" RangeMin="-0.50391545211" RangeMax="0.46854604601">
          0 -0.00080221104115 -0.0017247393564 -0.0026764959335 -0.0036300229482 -0.0040241730954
          -0.0033954872535 -0.0019613762174 0 0 -0.00069124853041 -0.0013532189753
          -0.0019862273344 -0.0024456973238 -0.0025313273172 -0.0021011873823 -0.0011778606986 0
          0 -0.00050408192515 -0.00098399405072 -0.0013866201561 -0.0016423352851 -0.0016473600977
          -0.0013374911495 -0.00075130009014 0 0 -0.00036586903965 -0.00069812533841
          -0.00095909206917 -0.0010969806606 -0.0010676667955 -0.00085285579489 -0.00047346495195 0
          0 -0.0002505563148 -0.00047386383664 -0.00064085259476 -0.00072287777969 -0.00069472568907
          -0.00054833527177 -0.00030249394103 0 0 -0.0001654129098 -0.00031080213598
          -0.00041566755475 -0.0004618180871 -0.00043762287597 -0.0003422919379 -0.00018800914754 0
          0 -9.9258519294e-05 -0.00018547898827 -0.00024675714911 -0.00027291057388 -0.00025748376366
          -0.00020046275559 -0.00010958562444 0 0 -4.6545816246e-05 -8.690190821e-05
          -0.00011512494145 -0.00012660339713 -0.00011879838993 -9.2145423884e-05 -5.0343332754e-05 0
          0 -1.7152696086e-07 -3.323493548e-07 -3.2683903091e-07 -2.3937254745e-07 -1.1859516802e-07
          -1.0145472855e-08 -1.0828571652e-08 0 0.46556620758 0.44798360216 0.35730878726
          0.17875039996 -0.027441433653 -0.23183009134 -0.40558766156 -0.4899676742 -0.50115783115
          0.0098191192743 0.014843594324 0.016495843437 0.0089331838012 -0.013628427322 -0.035873856817
          -0.042799177809 -0.040683095195 -0.035564868595 0.0055628245864 0.0057687071122 0.0034326873801
          -0.0028921666666 -0.010939250487 -0.018830378488 -0.024771508484 -0.026636336285 -0.025965075075
          -0.0028032661421 -0.001802665863 -0.0018351040502 -0.004078502747 -0.0087764320086 -0.013237411899
          -0.014848465047 -0.014024160761 -0.012100018264 -0.0014416642376 -0.0021607976727 -0.002954941618
          -0.0045619879649 -0.0072514450403 -0.0096320522851 -0.010383196697 -0.0099200599916 -0.0090930438283
          -0.0019037320015 -0.0018829874933 -0.0025413829611 -0.0040399456944 -0.0060188685934 -0.0076054155486