<?xml version="1.0"?>
<VTKFile type="UnstructuredGrid" version="0.1" byte_order="LittleEndian" header_type="UInt32" compressor="vtkZLibDataCompressor">
  <UnstructuredGrid>
    <Piece NumberOfPoints="2601" NumberOfCells="2048">
      <PointData>
        <DataArray type="Float64" Name="displacement" NumberOfComponents="3" format="ascii" RangeMin="0" RangeMax="1.1429694237702138e-7">
          1.478970714692352e-8 1.0291846277231333e-7 4.746415040309621e-8 1.430643062006471e-8 1.029185388900918e-7 4.759373250526238e-8
          1.3823219745696044e-8 1.0291859673443986e-7 4.7723275817988685e-8 1.3340020754726556e-8 1.0291864088309614e-7 4.785279883455218e-8
          1.2856816129811897e-8 1.0291865730509338e-7 4.798229168643211e-8 1.2373602258389795e-8 1.0291864087251474e-7 4.8111750029838715e-8
          1.1890378183784723e-8 1.0291859671330033e-7 4.824117943288534e-8 1.1407133669793161e-8 1.02918538858449e-7 4.83705972006343e-8
          1.0923812904377551e-8 1.0291846273028971e-7 4.8500014201969714e-8 1.4705033075901743e-8 9.692292553568217e-8 4.7141069402993485e-8
          1.4221591519164028e-8 9.692308188990469e-8 4.727194826194915e-8 1.3738114337225937e-8 9.692321698042771e-8 4.740232290729195e-8
          1.325459136362693e-8 9.692331424653123e-8 4.7532339980956497e-8 1.2771010858793315e-8 9.692334942117344e-8 4.7662061988794396e-8
          1.2287356887845176e-8 9.692331423584623e-8 4.779150981749879e-8 1.1803605207416544e-8 9.692321695910711e-8 4.7920673346081695e-8
          1.1319714397793423e-8 9.692308185805366e-8 4.804950431264409e-8 1.0835602333541862e-8 9.69229254934915e-8 4.8177880804697504e-8
          1.4625831611981057e-8 9.091083692093113e-8 4.686938920393844e-8 1.414389871004945e-8 9.091157365739004e-8 4.699999720272311e-8
          1.366193492885454e-8 9.091209110150877e-8 4.7130038120871275e-8 1.3179922790801609e-8 9.091239588077337e-8 4.725968583269602e-8
          1.2697848196289538e-8 9.09124964078851e-8 4.7389015130662214e-8 1.2215694736804816e-8 9.091239586964759e-8 4.7518050100661784e-8
          1.1733436159202448e-8 9.09120910793461e-8 4.764677808793251e-8 1.1251022856617454e-8 9.091157362437856e-8 4.777514137006631e-8
          1.0768352755797988e-8 9.091083687739026e-8 4.7902998106205486e-8 1.4553319106324415e-8 8.48367498753577e-8 4.6653726887521295e-8
          1.4074701821599503e-8 8.483794282631166e-8 4.678290638630759e-8 1.3596084609320805e-8 8.483876645803137e-8 4.6911689277516766e-8
          1.3117448408241177e-8 8.48392471382622e-8 4.7040224462517664e-8 1.263878089188079e-8 8.483940520931559e-8 4.71685728276175e-8
          1.216006851500883e-8 8.483924712580324e-8 4.729675377096045e-8 1.1681289848032094e-8 8.483876643323023e-8 4.742475726585708e-8
          1.1202403772737842e-8 8.483794278941476e-8 4.7552536746432505e-8 1.0723319330875994e-8 8.483674982677647e-8 4.7679972790877e-8
          1.4482162330376157e-8 7.866184928941476e-8 4.6463108860836665e-8 1.4008076074746434e-8 7.866337760729672e-8 4.6590382622525685e-8
          1.353402573034929e-8 7.866442731788593e-8 4.671747279714435e-8 1.3059996449223372e-8 7.866504092535223e-8 4.68444992535522e-8
          1.25859784711903e-8 7.866524291897663e-8 4.6971511336146294e-8 1.2111960853884557e-8 7.866504091021547e-8 4.709852476473467e-8
          1.1637926261030409e-8 7.866442728774123e-8 4.7225531396731725e-8 1.1163841567856887e-8 7.866337756241521e-8 4.735249337870425e-8
          1.0689633981193586e-8 7.866184923024602e-8 4.747931432510548e-8 1.4401268172761932e-8 7.23570100846883e-8 4.6252333110107315e-8
          1.393269000473075e-8 7.235881595922446e-8 4.637731690285945e-8 1.3464195239577904e-8 7.236005449680215e-8 4.65023613060829e-8
          1.2995772431702514e-8 7.236077845117117e-8 4.662755686288674e-8 1.2527413540921316e-8 7.236101673046725e-8 4.675294380022247e-8
          1.2059109409684565e-8 7.236077843179354e-8 4.6878535102462485e-8 1.1590845615131499e-8 7.236005445816928e-8 4.700432410357271e-8
          1.1122595080776547e-8 7.235881590159317e-8 4.713027998606514e-8 1.0654302622865043e-8 7.235701000848e-8 4.725633006007032e-8
          1.4296116781387343e-8 6.589806563900946e-8 4.596519872505441e-8 1.3833890772665499e-8 6.590011341054583e-8 4.608749420747834e-8
          1.3371807075966574e-8 6.590151167702829e-8 4.621014584136926e-8 1.2909858258250887e-8 6.590232653199146e-8 4.6333207608777586e-8
          1.2448038075624361e-8 6.590259432678225e-8 4.64567102146147e-8 1.1986338797792196e-8 6.590232650673351e-8 4.6580664042525644e-8
          1.1524748538297546e-8 6.590151162661002e-8 4.670506396514709e-8 1.1063246537309575e-8 6.590011333517049e-8 4.682988651317758e-8
          1.0601799366592093e-8 6.589806553900196e-8 4.695508865328494e-8 1.4148620948824359e-8 5.9264147479665544e-8 4.553273761349907e-8
          1.3693484576786436e-8 5.926639719719214e-8 4.565187501116506e-8 1.3238561673217706e-8 5.9267923203022095e-8 4.577175482472838e-8
          1.2783850312606649e-8 5.926880839015365e-8 4.589237474068511e-8 1.2329347441056225e-8 5.926909865382272e-8 4.601375034148729e-8
          1.1875048643529754e-8 5.9268808357407204e-8 4.613588755585969e-8 1.1420947132129491e-8 5.926792313758295e-8 4.6258783456886823e-8
          1.0967032470875641e-8 5.926639709916906e-8 4.63824260767065e-8 1.0513304148979586e-8 5.926414734921436e-8 4.650681838161877e-8
          1.3936245636329468e-8 5.243806050843691e-8 4.486880104520055e-8 1.3488768885235216e-8 5.2440437430606366e-8 4.498420561084334e-8
          1.3041600268942267e-8 5.244202318311382e-8 4.510087934491544e-8 1.2594748703119699e-8 5.2442931176832676e-8 4.5218730574613105e-8
          1.2148214329630306e-8 5.244322688105219e-8 4.5337751902385295e-8 1.1701993591150227e-8 5.244293113509445e-8 4.5457943730554715e-8
          1.1256083205786092e-8 5.244202309962529e-8 4.5579307489359696e-8 1.0810486995173277e-8 5.244043730533524e-8 4.5701849514331716e-8
          1.0365258516927191e-8 5.243806034128981e-8 4.582564473863045e-8 1.3630960987105871e-8 4.540928122128121e-8 4.386346815721326e-8
          1.3191400641552307e-8 4.5411662342580717e-8 4.397446781441234e-8 1.2752239904235698e-8 4.5413236846007316e-8 4.4087502099946127e-8
          1.2313501199956042e-8 4.5414134070324264e-8 4.420231578165435e-8 1.1875199885133326e-8 4.541442578923929e-8 4.4318847614446536e-8
          1.1437353933189896e-8 4.5414134018231625e-8 4.443707888284913e-8 1.0999988267307004e-8 4.54132367417192e-8 4.455701680823318e-8
          1.0563146809090034e-8 4.541166218586726e-8 4.467870675220087e-8 1.012697659511246e-8 4.5409281011696605e-8 4.480235853995051e-8
          1.3195871124468375e-8 3.8178525065314874e-8 4.237448626420296e-8 1.2763927059609473e-8 3.81806232182154e-8 4.2480093824016985e-8
          1.2332596904350948e-8 3.8181848190806945e-8 4.2588809739526725e-8 1.1901946798462239e-8 3.818246401485442e-8 4.270015599187157e-8
          1.1471983622600626e-8 3.818264889088213e-8 4.281402352520141e-8 1.1042690861969115e-8 3.8182463951170615e-8 4.293039307990937e-8
          1.0614063844149517e-8 3.818184806320077e-8 4.3049289592734585e-8 1.0186163055913315e-8 3.818062302617102e-8 4.317080406852274e-8
          9.759284785504229e-9 3.817852480789976e-8 4.329531741401588e-8 1.2588573863590715e-8 3.0773418004595545e-8 4.0212215293806866e-8
          1.2162718319615563e-8 3.077495856595687e-8 4.031160077772972e-8 1.173733586991134e-8 3.077606131574822e-8 4.041599570308956e-8
          1.1312523292991066e-8 3.077676379079753e-8 4.052430423818771e-8 1.0888420180553634e-8 3.0777018133361285e-8 4.063613466839119e-8
          1.0465220937031131e-8 3.077676371441529e-8 4.075133838040176e-8 1.0043168228276797e-8 3.077606116256449e-8 4.086994687494383e-8
          9.62257880162974e-9 3.077495833503174e-8 4.099222959106609e-8 9.204084385815014e-9 3.077341769422676e-8 4.111908715791889e-8
          1.1727761721779547e-8 2.3242729506646965e-8 3.712267040826599e-8 1.1306158238610102e-8 2.324249268245039e-8 3.72114687545091e-8
          1.088641743682267e-8 2.3240534955695015e-8 3.7307692042602455e-8 1.0468765244250747e-8 2.323846488285256e-8 3.7410048501136996e-8
          1.0052996869621621e-8 2.3237620550004444e-8 3.751829215725151e-8 9.638809109907197e-9 2.323846479220364e-8 3.763243474395877e-8
          9.225933517119179e-9 2.3240534773668284e-8 3.7752617701922116e-8 8.81431572331803e-9 2.3242492407489583e-8 3.787915644580884e-8
          8.404797273794999e-9 2.324272913598326e-8 3.801305671929266e-8 1.0614297192401736e-8 1.5817055024169082e-8 3.272733224534043e-8
          1.0182702810469652e-8 1.5815493825094263e-8 3.280969195015146e-8 9.748385953181857e-9 1.5818519896543866e-8 3.2907263655798126e-8
          9.312410466460201e-9 1.5822224529015323e-8 3.301417512124545e-8 8.876575954106079e-9 1.5823589821343505e-8 3.3127829587416335e-8
          8.442305006409508e-9 1.5822224424497433e-8 3.324731935226166e-8 8.011283473984438e-9 1.5818519685825696e-8 3.3372719213885597e-8
          7.586368239648847e-9 1.581549350508692e-8 3.3505378230090415e-8 7.171416742886491e-9 1.5817054588755892e-8 3.3649849989334114e-8
          8.684703060100448e-9 8.433424167764336e-9 2.6432340821311188e-8 8.278563709650563e-9 8.417521723766639e-9 2.6446087821204648e-8
          7.88798158913171e-9 8.380997519936295e-9 2.64848550672183e-8 7.508629231548234e-9 8.355140614737539e-9 2.654820714565816e-8
          7.136903495618871e-9 8.346383645432909e-9 2.663528423175497e-8 6.771441068649204e-9 8.355140486633624e-9 2.6745736286662907e-8
          6.411236307005292e-9 8.38099726282774e-9 2.6880548111301554e-8 6.0535987114511876e-9 8.417521334295348e-9 2.7042265909092206e-8
          5.6949982944541404e-9 8.433423638360064e-9 2.7233430497494582e-8 7.859145094815944e-9 4.249907268467808e-9 1.7051113483188507e-8
          7.12004772967573e-9 4.18034529054028e-9 1.721767261434151e-8 6.35330664216531e-9 4.191123207550504e-9 1.743953111411899e-8
          5.57607074965926e-9 4.200807035267999e-9 1.7668397987334364e-8 4.792700435660804e-9 4.204055036675659e-9 1.7886600981441404e-8
          4.005180385324561e-9 4.200806922740616e-9 1.8089316955699336e-8 3.2176409585397903e-9 4.1911229762772645e-9 1.827973053332895e-8
          2.4426944882698243e-9 4.180344928837924e-9 1.8470966145645048e-8 1.7193378771729292e-9 4.249906772274679e-9 1.8696270565881646e-8
          0 0 0 0 0 0
          0 0 0 0 0 0
          0 0 0 0 0 0
          0 0 0 0 0 0
          0 0 0 1.3239487276669351e-8 1.0326450927864025e-7 4.1672200340977634e-8
          1.2755799986136376e-8 1.0326576475972185e-7 4.180198372411933e-8 1.227219164284026e-8 1.0326653997272881e-7 4.193171444618742e-8
          1.1788616781048689e-8 1.0326696878777873e-7 4.206139176628973e-8 1.130504469324307e-8 1.0326710654552924e-7 4.219100172985023e-8
          1.0821454033839892e-8 1.032669687765991e-7 4.2320542383318294e-8 1.0337827293795286e-8 1.0326653995038921e-7 4.245002609130439e-8
          9.854144856904587e-9 1.0326576472626525e-7 4.2579480292579495e-8 9.370367719127207e-9 1.0326450923414816e-7 4.2708928361611156e-8
          1.3145134209222628e-8 9.726390050589012e-8 4.134632352264349e-8 1.2663242170748774e-8 9.726423929638694e-8 4.1475794704264426e-8
          1.2181302910906873e-8 9.726450660720847e-8 4.1605202952947203e-8 1.1699339440749185e-8 9.726467768918008e-8 4.173451864358762e-8
          1.1217351596354706e-8 9.72647364119364e-8 4.186372657467107e-8 1.0735333948369852e-8 9.726467767738707e-8 4.1992823277301134e-8
          1.0253283529283076e-8 9.726450658363512e-8 4.2121814470298896e-8 9.771207797890923e-9 9.726423926105912e-8 4.225071340051198e-8
          9.28914149489406e-9 9.726390045885589e-8 4.2379534218465914e-8 1.3070713374092078e-8 9.123650537909844e-8 4.1094807079329426e-8
          1.2590426327305258e-8 9.123703790265915e-8 4.122377432703415e-8 1.2110116060854676e-8 9.123743296128908e-8 4.135268950287907e-8
          1.1629789024616483e-8 9.123766913582978e-8 4.1481530127791076e-8 1.114944234806382e-8 9.123774748405688e-8 4.161028573342915e-8
          1.0669072155862858e-8 9.123766912276924e-8 4.173895357745201e-8 1.0188676463044148e-8 9.123743293516672e-8 4.1867537972452364e-8
          9.70825801782736e-9 9.123703786347306e-8 4.199604941952862e-8 9.22783364549899e-9 9.123650532685505e-8 4.2124504161144785e-8
          1.3012339078676849e-8 8.515774398790598e-8 4.0912375336567244e-8 1.2534191479958864e-8 8.515850792357299e-8 4.104045211642579e-8
          1.2056036125657327e-8 8.515904869044769e-8 4.11685525455397e-8 1.1577884754985113e-8 8.515937033606439e-8 4.129666548225914e-8
          1.1099737149765314e-8 8.515947721848839e-8 4.142478330323263e-8 1.062159030159184e-8 8.515937032089397e-8 4.1552903949368934e-8
          1.0143442634651971e-8 8.515904866009525e-8 4.1681030708086805e-8 9.665297771672938e-9 8.515850787801515e-8 4.180917029047938e-8
          9.187171449930306e-9 8.515774392711512e-8 4.193732647585611e-8 1.2960480327405601e-8 7.901047305301289e-8 4.076565783789885e-8
          1.2485129713002236e-8 7.90114309585111e-8 4.089247798484582e-8 1.200981016963959e-8 7.901211015916925e-8 4.101945517102015e-8
          1.1534531551217492e-8 7.901251553357335e-8 4.114657914845641e-8 1.1059293170044275e-8 7.901265034332868e-8 4.127384417077257e-8
          1.0584092183279421e-8 7.901251551518212e-8 4.1401248750544646e-8 1.0108926872661383e-8 7.901211012236731e-8 4.152879559733295e-8
          9.633799515821956e-9 7.901143090325799e-8 4.1656490031488056e-8 9.158723770468543e-9 7.901047297925071e-8 4.1784336001034525e-8
          1.2903093701544783e-8 7.277989402636686e-8 4.0607443209731975e-8 1.2431074379757634e-8 7.2780995585351e-8 4.07327073004474e-8
          1.1959135868569365e-8 7.278177637342864e-8 4.0858310224273705e-8 1.1487284032288883e-8 7.278224183940598e-8 4.0984234396837755e-8
          1.1015518540588693e-8 7.27823965363209e-8 4.1110474833644216e-8 1.0543837457366973e-8 7.278224181648335e-8 4.123703028656724e-8
          1.007223972997282e-8 7.278177632755482e-8 4.136390280456248e-8 9.600727564582499e-9 7.278099551646586e-8 4.149109686948847e-8
          9.129314832024461e-9 7.277989393437527e-8 4.1618624777693165e-8 1.2825406345664085e-8 6.645455563827429e-8 4.037980039294323e-8
          1.2357073728638936e-8 6.645573482247637e-8 4.050325116084894e-8 1.188888460868657e-8 6.64565696040583e-8 4.062727094139991e-8
          1.1420839008588383e-8 6.645706638562747e-8 4.0751827630198364e-8 1.0952936925709354e-8 6.645723136655211e-8 4.0876916814507023e-8
          1.0485177279366186e-8 6.64570663568048e-8 4.100253757832941e-8 1.0017559591658684e-8 6.645656954637264e-8 4.112869125528307e-8
          9.550086066675787e-9 6.645573473584186e-8 4.125538166822681e-8 9.082772776352587e-9 6.645455552254628e-8 4.1382636608996715e-8
          1.2709387950942776e-8 6.002738553957214e-8 4.0011655640392954e-8 1.2244854526809903e-8 6.002854951711909e-8 4.0133069802140365e-8
          1.1780542195688038e-8 6.002937173884456e-8 4.025534009173937e-8 1.1316441810952017e-8 6.002985941859574e-8 4.0378412416731374e-8
          1.0852554235245162e-8 6.003002113867036e-8 4.05022832043371e-8 1.0388880453093027e-8 6.002985938259071e-8 4.0626951879195084e-8
          9.92542160480278e-9 6.00293716667789e-8 4.075241844732467e-8 9.462180223839733e-9 6.00285494088733e-8 4.087868557152563e-8
          8.999175435237654e-9 6.002738539493607e-8 4.100580467057483e-8 1.2532580886273733e-8 5.349788600256831e-8 3.941357717944917e-8
          1.2071589997286494e-8 5.349888783041219e-8 3.953278174581073e-8 1.161092101323182e-8 5.349958917884801e-8 3.965320040369652e-8
          1.1150551169107849e-8 5.3500000471854046e-8 3.977474674951688e-8 1.0690481367587885e-8 5.350013603680744e-8 3.989741867262858e-8
          1.0230713307985197e-8 5.350000042761199e-8 4.0021216710449454e-8 9.771248193243908e-9 5.349958909028868e-8 4.0146139547916995e-8
          9.312087860431576e-9 5.349888769737317e-8 4.027218856157651e-8 8.853255796297983e-9 5.349788582475608e-8 4.039944996168073e-8
          1.2266517003745591e-8 4.687592417960366e-8 3.8470195226985036e-8 1.1808245994077845e-8 4.687653877289599e-8 3.8587106226539446e-8
          1.1350414878124849e-8 4.687696507200213e-8 3.870568097265799e-8 1.0892975191551525e-8 4.687721084355436e-8 3.8825789129776196e-8
          1.0435933087113286e-8 4.6877290873975725e-8 3.894743117974615e-8 9.979302027776574e-9 4.6877210790381985e-8 3.907060726913015e-8
          9.523093599539282e-9 4.6876964965559265e-8 3.919531053954177e-8 9.067312889930226e-9 4.687653861296975e-8 3.9321537497330565e-8
          8.611983095426165e-9 4.68759239658013e-8 3.9449425248664956e-8 1.1874404095194687e-8 4.0188608619177456e-8 3.7029600748778786e-8
          1.1417015312842377e-8 4.018840585992075e-8 3.7144336620372906e-8 1.0960262817087766e-8 4.0188209074864834e-8 3.726129062175752e-8
          1.0504071206553878e-8 4.018805674554819e-8 3.738026474126105e-8 1.0048433648638496e-8 4.018799987584203e-8 3.7501263228288304e-8
          9.593340745068464e-9 4.018805668333008e-8 3.7624294390864724e-8 9.138780202701538e-9 4.018820895029912e-8 3.774935573320772e-8
          8.684743979648871e-9 4.018840567272782e-8 3.7876446991569635e-8 8.231265782305028e-9 4.018860836884113e-8 3.800577734994233e-8
          1.1308600247142608e-8 3.348936804434476e-8 3.4886455194476126e-8 1.0848850272579678e-8 3.348780398028688e-8 3.499946320360719e-8
          1.0389812764144856e-8 3.34867628255517e-8 3.51153909361234e-8 9.931318345262346e-9 3.348615859687045e-8 3.523398307839018e-8
          9.473411866685308e-9 3.348597750768337e-8 3.535525244155825e-8 9.016218583574042e-9 3.348615852624004e-8 3.547918348384358e-8
          8.559854740995427e-9 3.3486762684143156e-8 3.5605727037322724e-8 8.104352775297393e-9 3.348780376777698e-8 3.573484958191774e-8
          7.649693658979118e-9 3.3489367760121746e-8 3.586685691429913e-8 1.0502756259448036e-8 2.6881113497584347e-8 3.175743392462554e-8
          1.0033826959400063e-8 2.6876325866004794e-8 3.187017215591306e-8 9.566434642219408e-9 2.6872520611341392e-8 3.198646235837807e-8
          9.100453253142645e-9 2.6869695460896167e-8 3.210595896948863e-8 8.635657349005351e-9 2.686864895825766e-8 3.222870989105683e-8
          8.171756870544516e-9 2.6869695384453416e-8 3.235480258384958e-8 7.708456888722777e-9 2.687252045823136e-8 3.248430633439854e-8
          7.24553821316961e-9 2.687632563574971e-8 3.261729238025899e-8 6.783064458693787e-9 2.688111318937505e-8 3.2754123015304125e-8
          9.38641986839511e-9 2.05236404083293e-8 2.720761306146423e-8 8.896264308000817e-9 2.051486989431333e-8 2.7324109128782865e-8
          8.405555675496521e-9 2.0510862247271777e-8 2.7444853482545156e-8 7.913754413152134e-9 2.0510113843707558e-8 2.75700296436102e-8
          7.422071682925128e-9 2.0509991608296546e-8 2.7699546662609517e-8 6.931503481819061e-9 2.0510113766314813e-8 2.7833223157413963e-8
          6.443003059700687e-9 2.0510862092374435e-8 2.7970718211299313e-8 5.95766478840034e-9 2.0514869661763287e-8 2.8111505008019395e-8
          5.474929636998463e-9 2.0523640097969204e-8 2.825569439363377e-8 7.748435947158099e-9 1.4692458945242466e-8 2.0651282361224716e-8
          7.215948434847308e-9 1.4671590005209683e-8 2.0780461809507018e-8 6.695746663290897e-9 1.4635840530465643e-8 2.090832884183276e-8
          6.182856009131728e-9 1.4612510358861017e-8 2.1038692334948374e-8 5.673256117274582e-9 1.4604859970012596e-8 2.1172878554821143e-8
          5.164836596412115e-9 1.4612510298347099e-8 2.1311469977754108e-8 4.655478555972682e-9 1.4635840409320717e-8 2.145501736097051e-8
          4.141037133144201e-9 1.4671589822885433e-8 2.1604382303132424e-8 3.6152997391633418e-9 1.469245870061578e-8 2.1758753534528582e-8
          6.236211693105978e-9 9.58607288854082e-9 1.0525177200806136e-8 5.47841696961676e-9 9.593609347961675e-9 1.0747539592493445e-8
          4.681566542394806e-9 9.633583595443906e-9 1.0965356492220206e-8 3.870613310433779e-9 9.655812314262071e-9 1.118293019806959e-8
          3.054967535014221e-9 9.6625843157765e-9 1.1401293506888212e-8 2.2394159445631383e-9 9.65581229443382e-9 1.162000832133538e-8
          1.4283230163160859e-9 9.633583559486896e-9 1.1837060681343186e-8 6.293218773228781e-10 9.593609304248682e-9 1.204685102905794e-8
          -1.3812877694466291e-10 9.586072852000854e-9 1.2233177016820835e-8 0 0 0
          0 0 0 0 0 0
          0 0 0 0 0 0
          0 0 0 0 0 0
          0 0 0 0 0 0
          1.167675278221977e-8 1.0366087591856938e-7 3.586563146941112e-8 1.1194812884977682e-8 1.036620796402115e-7 3.5995527026593736e-8
          1.0712902715098397e-8 1.0366282111102916e-7 3.612518037068459e-8 1.0230980517881643e-8 1.036632291621966e-7 3.6254616023215366e-8
          9.749024599841209e-9 1.0366335994226572e-7 3.638385557458353e-8 9.267018790867961e-9 1.0366322915006737e-7 3.6512908930744275e-8
          8.784944134254328e-9 1.0366282108675811e-7 3.6641775597926e-8 8.302771047685248e-9 1.0366207960376891e-7 3.677044772501633e-8
          7.820451109746892e-9 1.0366087586989948e-7 3.68989249530256e-8 1.1578232865817063e-8 9.768157368861437e-8 3.552445630058781e-8
          1.1097976396950874e-8 9.768183550464243e-8 3.565362846454147e-8 1.0617683372711015e-8 9.76820444618746e-8 3.578268819144884e-8
          1.0137355644417884e-8 9.768217661813373e-8 3.591160819348812e-8 9.65699389471027e-9 9.768222174178447e-8 3.604039225325896e-8
          9.176596422005045e-9 9.768217660500438e-8 3.6169042993160905e-8 8.69616044148786e-9 9.76820444356131e-8 3.629755899292086e-8
          8.215684653040938e-9 9.768183546524232e-8 3.6425936635392757e-8 7.735184303865005e-9 9.768157363607025e-8 3.6554198626852286e-8
          1.1511052244395e-8 9.168217560748969e-8 3.529214289544914e-8 1.103185720019553e-8 9.168244509373236e-8 3.5420745068653865e-8
          1.0552671669347254e-8 9.168265917241842e-8 3.554931797583551e-8 1.0073473640548206e-8 9.16827874881217e-8 3.567782325927189e-8
          9.594259112192165e-9 9.16828299678983e-8 3.5806262793891914e-8 9.11502742497012e-9 9.168278747346756e-8 3.593463829078206e-8
          8.63577715235925e-9 9.168265914310477e-8 3.606294859774861e-8 8.156503891401632e-9 9.168244504974569e-8 3.6191194091856414e-8
          7.677207758612425e-9 9.168217554880989e-8 3.631941899751227e-8 1.1464919255746178e-8 8.564520279872572e-8 3.513713842023692e-8
          1.0986713511952248e-8 8.564555276925779e-8 3.526510514018678e-8 1.0508534257308579e-8 8.564580137629308e-8 3.5393144363075694e-8
          1.003036572968875e-8 8.564594917124012e-8 3.552121580130313e-8 9.552206437914657e-9 8.564599831989524e-8 3.5649319993080025e-8
          9.074056283915179e-9 8.564594915425454e-8 3.5777458287348625e-8 8.595914508285822e-9 8.564580134231152e-8 3.590562956492124e-8
          8.117779550522299e-9 8.564555271825582e-8 3.603383410527814e-8 7.639657904024236e-9 8.564520273066155e-8 3.616211467955942e-8
          1.1428230202749385e-8 7.956501706375751e-8 3.502109391157176e-8 1.0951210286847703e-8 7.956543560089313e-8 3.5148261696993685e-8
          1.0474249003075165e-8 7.95657313393521e-8 3.5275628552478165e-8 9.99733335918836e-9 7.956590796784964e-8 3.540315682216335e-8
          9.520461702277261e-9 7.956596672028754e-8 3.553084691286808e-8 9.04363372353636e-9 7.956590794759661e-8 3.5658700012364834e-8
          8.566848561644994e-9 7.95657312988294e-8 3.578671524641097e-8 8.090104581731359e-9 7.956543554006265e-8 3.5914893089142194e-8
          7.61340936011586e-9 7.956501698255239e-8 3.604327264760907e-8 1.1388415496427813e-8 7.343853759362036e-8 3.4896028161179655e-8
          1.0912719203497081e-8 7.343897451740613e-8 3.5022245298910154e-8 1.0437121908818404e-8 7.343928263548854e-8 3.5148819607122404e-8
          9.961611503277738e-9 7.343946564554522e-8 3.5275715192693507e-8 9.486187092854817e-9 7.343952634410146e-8 3.5402932177421157e-8
          9.010849019679166e-9 7.343946562101022e-8 3.5530471376549584e-8 8.535597172421137e-9 7.343928258639461e-8 3.5658331912989355e-8
          8.060430715938056e-9 7.343897444369935e-8 3.578651412826878e-8 7.585357109995796e-9 7.343853749520376e-8 3.591505516130701e-8
          1.1330750769051468e-8 6.726433974877339e-8 3.4703676053698355e-8 1.0856305203639467e-8 6.726471152776399e-8 3.482883761474532e-8
          1.0382008139039617e-8 6.726497203274777e-8 3.495454813333622e-8 9.90784782653394e-9 6.726512541649996e-8 3.508077280557724e-8
          9.4338243163972e-9 6.72651760864548e-8 3.520751144206614e-8 8.959938633076608e-9 6.72651253867091e-8 3.5334764454391734e-8
          8.486191457975453e-9 6.726497197313334e-8 3.5462530973884397e-8 8.012582929335454e-9 6.726471143825302e-8 3.559081113943538e-8
          7.539120274423922e-9 6.726433962923265e-8 3.571964096648137e-8 1.1237387642345999e-8 6.104381638966877e-8 3.437214513089802e-8
          1.0763788577326106e-8 6.104400090553283e-8 3.4496219445008545e-8 1.0290395360403478e-8 6.104412649319955e-8 3.4621070958314884e-8
          9.817196831844089e-9 6.104419787189898e-8 3.474666792227874e-8 9.344194883483844e-9 6.10442210540322e-8 3.487300961219418e-8
          8.871392372553886e-9 6.104419783607771e-8 3.5000095611624634e-8 8.398791981708781e-9 6.104412642151403e-8 3.5127924852603834e-8
          7.926395711682136e-9 6.104400079788798e-8 3.5256497016834434e-8 7.454209772144083e-9 6.104381624588901e-8 3.5385845179268723e-8
          1.108598600535461e-8 5.4783083888194406e-8 3.381039200416715e-8 1.0612339899669226e-8 5.478289992834664e-8 3.393346190631812e-8
          1.013896916007712e-8 5.47827565262046e-8 3.4057574187474606e-8 9.66586500951331e-9 5.478266327563724e-8 3.4182706139277814e-8
          9.193030600903036e-9 5.4782631013604255e-8 3.430885656862991e-8 8.720468814733945e-9 5.4782663233398344e-8 3.4436024437399766e-8
          8.248182664650295e-9 5.478275644167269e-8 3.4564209204402915e-8 7.776175477718846e-9 5.478289980140311e-8 3.4693410326445006e-8
          7.304451006979217e-9 5.478308371861845e-8 3.482365185815217e-8 1.084818493847948e-8 4.849550397315296e-8 3.290057662711221e-8
          1.0372873501809857e-8 4.8494688994465535e-8 3.3022916191482925e-8 9.897899733327262e-9 4.849409867300569e-8 3.314659802101698e-8
          9.423260329113915e-9 4.8493739445761667e-8 3.3271625721432544e-8 8.948966267446403e-9 4.8493618871099146e-8 3.3397995808712774e-8
          8.475030556591566e-9 4.84937393973456e-8 3.3525703277760956e-8 8.001466964593055e-9 4.849409857610884e-8 3.365474595900664e-8
          7.52828674093249e-9 4.849468884894734e-8 3.3785121380587e-8 7.055485221505313e-9 4.849550377875148e-8 3.391682807194571e-8
          1.0487006810348452e-8 4.220384945513165e-8 3.1487977872053526e-8 1.0007274232814389e-8 4.2201966550534416e-8 3.1610185850646124e-8
          9.527998575189133e-9 4.2200561022736565e-8 3.1734040445793034e-8 9.049191817675039e-9 4.219968758093537e-8 3.185959804441563e-8
          8.570852870995839e-9 4.2199391381999255e-8 3.198685716333474e-8 8.092969672063539e-9 4.219968752751778e-8 3.211581715402033e-8
          7.615532098212663e-9 4.2200560915831545e-8 3.224648460969903e-8 7.138539947702744e-9 4.2201966389991994e-8 3.237886135952824e-8
          6.661975402275202e-9 4.220384924067287e-8 3.25128925810976e-8 9.956920105019516e-9 3.5943115623729936e-8 2.9367081417397968e-8
          9.468197727228365e-9 3.593962054736273e-8 2.9490392251246745e-8 8.979820188164654e-9 3.593720148855274e-8 2.961563217309584e-8
          8.491838700140279e-9 3.59357995585743e-8 2.9743016769557698e-8 8.004319841205449e-9 3.5935352039031685e-8 2.9872526949475177e-8
          7.517361075277753e-9 3.593579950282592e-8 3.0004127422653684e-8 7.031064453697779e-9 3.5937201376994096e-8 3.013780001940741e-8
          6.5454971803382135e-9 3.593962037986044e-8 3.027352798422325e-8 6.060595813106899e-9 3.5943115400040406e-8 3.0411099007772575e-8
          9.19120216423116e-9 2.9746783424655023e-8 2.6264779340699584e-8 8.686025029556056e-9 2.974026981260775e-8 2.6391410277673434e-8
          8.181886108591733e-9 2.9734991551800224e-8 2.6519934617790608e-8 7.678864654880933e-9 2.9731427480086033e-8 2.665079235113917e-8
          7.176759134353763e-9 2.9730165491815495e-8 2.6784028320891665e-8 6.675305054057848e-9 2.9731427426873236e-8 2.69196954960497e-8
          6.174246871909754e-9 2.973499144534701e-8 2.705788025070145e-8 5.673387632734917e-9 2.974026965288292e-8 2.7198644516675457e-8
          5.172575977121427e-9 2.974678321162477e-8 2.7341567624951578e-8 8.151361781067092e-9 2.3647564503230967e-8 2.1820765273574905e-8
          7.614405177059252e-9 2.3638118153839104e-8 2.1956208446439036e-8 7.075638620970119e-9 2.3633263911949213e-8 2.209349570970488e-8
          6.535787319748733e-9 2.3631718341254926e-8 2.2233894637570985e-8 5.995937674012216e-9 2.363130644106823e-8 2.2377142811390788e-8
          5.456790118797152e-9 2.3631718299071173e-8 2.2523011219722516e-8 4.91906575439445e-9 2.3633263827753665e-8 2.267134797497827e-8
          4.383836640646571e-9 2.3638118027956747e-8 2.2821837138306976e-8 3.85109703802917e-9 2.3647564336065868e-8 2.297301835534528e-8
          6.61266147359827e-9 1.7395833524165056e-8 1.5642253807107834e-8 6.036723809419044e-9 1.737532945734188e-8 1.5790503958871504e-8
          5.4701162883904376e-9 1.7346274830943963e-8 1.59371179817195e-8 4.908830161841522e-9 1.7328081732040433e-8 1.608438113429053e-8
          4.349665586643959e-9 1.7322234745608213e-8 1.6233172183981766e-8 3.791019367907824e-9 1.73280817128733e-8 1.6383897763533683e-8
          3.231299781880686e-9 1.7346274792997063e-8 1.6537007316335125e-8 2.667296299600585e-9 1.7375329401442137e-8 1.669333972894404e-8
          2.09439461340781e-9 1.7395833452133835e-8 1.6852920281864493e-8 5.324119920533367e-9 1.0803111560385525e-8 7.567337232190831e-9
          4.5847324072188475e-9 1.0838357792546625e-8 7.770627396550913e-9 3.814727832759912e-9 1.0885290964814258e-8 7.980123094365982e-9