<?xml version="1.0"?>
<VTKFile type="UnstructuredGrid" version="0.1" byte_order="LittleEndian" header_type="UInt32" compressor="vtkZLibDataCompressor">
  <UnstructuredGrid>
    <Piece NumberOfPoints="60" NumberOfCells="24">
      <PointData>
        <DataArray type="Float64" Name="Continuous global L2-projection p-rec" format="ascii" RangeMin="-72.164298953748" RangeMax="2.5471988220005386">
          -45.803674202129194 -28.904914749979614 -12.006155297830029 -46.18979888347245 -28.8630656107612 -11.536332338049881
          -49.14849330554698 -32.60113920562291 -16.053785105698854 -51.721950890693236 -36.38218366006025 -21.042416429427135
          -43.06515951799191 -28.30497159435127 -13.544783670710633 -43.346591527714644 -29.26825798389961 -15.189924440084578
          -43.76506527429329 -29.8426724468105 -15.920279619327783 -43.90223258666511 -29.453972890347224 -15.005713194029415
          -39.75979664694625 -24.210495282008377 -8.661193917070445 -42.534136713843026 -28.98757923266979 -15.441021751496628
          -46.170475739451824 -33.17761884340684 -20.184761947361796 -47.03356589003257 -32.591831849708875 -18.150097809385183
          -36.99553506629524 -18.96796469476955 -0.940394323243841 -43.71109810545497 -27.246436822425718 -10.781775539396431
          -56.12709005773699 -40.2489170119402 -24.370743966143447 -61.831244759175966 -44.97682685538508 -28.12240895159433
          -35.23292756633517 -16.342864372167337 2.5471988220005386 -44.197327537266375 -25.577578787462187 -6.95783003765797
          -62.66024305702291 -43.79341458405845 -24.926586111094036 -72.164298953748 -52.78000216962719 -33.395705385506176
        </DataArray>
        <DataArray type="Float64" Name="Continuous global L2-projection sigma_xx" format="ascii" RangeMin="-2.5471988220005173" RangeMax="72.16429895374803">
          45.80367420212917 28.904914749979607 12.006155297830007 46.18979888347244 28.8630656107612 11.536332338049915
          49.148493305547014 32.60113920562294 16.053785105698772 51.721950890693215 36.38218366006023 21.04241642942718
          43.065159517991965 28.304971594351258 13.544783670710638 42.06209945227136 27.159597643590455 12.257095834909556
          42.46303608184559 27.894757846438186 13.326479611030837 43.902232586665086 29.453972890347217 15.005713194029411
          39.75979664694626 24.210495282008377 8.661193917070463 38.50705120096648 24.58596677205654 10.66488234314663
          42.27757184526588 28.538224619716775 14.798877394167777 47.03356589003249 32.59183184970891 18.150097809385137
          36.99553506629518 18.96796469476954 0.9403943232438258 41.15684777572214 24.505148458492133 7.853449141262212
          54.61882882416868 36.99294242116194 19.367056018154873 61.831244759176045 44.976826855385035 28.12240895159436
          35.23292756633521 16.342864372167323 -2.5471988220005173 44.19732753726636 25.577578787462187 6.957830037657959
          62.66024305702293 43.79341458405843 24.926586111094075 72.16429895374803 52.78000216962715 33.395705385506155
        </DataArray>
        <DataArray type="Float64" Name="Continuous global L2-projection sigma_xy" format="ascii" RangeMin="-15.562547210703599" RangeMax="16.98930914980276">
          -9.698911421134152e-16 1.7797259072899967e-15 7.617090414373891e-16 -1.9906700010175235e-16 1.6313524176459408e-16 3.9004667267846006e-16
          -4.6836125887514e-16 1.3024478687841414e-15 1.0285077478874962e-15 -9.87064697650102e-16 2.013311324708305e-15 -4.844123669981859e-15
          8.059979187003012e-16 -2.832084188001938 -7.785045720357502 1.4019003074491416e-15 -1.3530001940890832 -3.4097499211536935
          4.57964569857159e-16 1.4158296630636136 3.891938914063477 2.3986042061554627e-15 2.706406396198708 6.820523039363914
          0 -7.480557763549696 -15.562547210703599 -1.3783022464997886e-15 -3.7244285669260813 -8.49338022900342
          0 3.739717774903677 7.780106279004096 -8.881784197001252e-16 7.449974759612119 16.98930914980276
          0 -5.025922166977601 -9.252341133076373 -4.705154048252898e-16 -1.7240169826833496 -6.169380824998191
          -2.95592860049184e-16 2.5125840956289345 4.6254765605097194 3.1716268890434657e-16 3.448551308029022 12.340612956528135
          -1.2473246376337643e-16 1.7101875344964162e-15 -1.6101186043518925e-15 1.0143519091006506e-16 -4.597803366590811e-16 1.2958506326868467e-15
          -4.840724616545485e-16 4.246495852798085e-16 -1.5319307551210875e-15 1.3101392836475866e-16 -2.1232479263990437e-16 -1.6765252766148004e-15
        </DataArray>
        <DataArray type="Float64" Name="Continuous global L2-projection sigma_xz" format="ascii" RangeMin="-11.836784060282822" RangeMax="16.06669724829215">
          1.0002807766537665 1.0002807766537618 1.000280776653769 1.0002807766537614 -3.025724757366049 -11.836784060282822
          1.0002807766537676 -2.7216060982602106 -10.090271291953023 1.0002807766537634 1.0002807766537674 1.0002807766537622
          0.9999202748617885 0.9999202748617938 0.9999202748617878 0.9999202748617936 -4.921771451381452 -11.121630691423436
          0.9999202748617882 -5.154585567412269 -11.73344556803542 0.9999202748617918 0.9999202748617874 0.9999202748617957
          0.9998859658116775 0.9998859658116784 0.999885965811677 0.9998859658116799 -0.22366898511566907 -0.36060299022773334
          0.9998859658116772 0.3967932288816361 -2.0668303140820674 0.9998859658116788 0.9998859658116762 0.999885965811688
          1.0000626108246473 1.0000626108246442 1.0000626108246438 1.0000626108246418 5.666397491082974 10.551930335740789
          1.0000626108246489 5.849856657901225 11.034044777183805 1.0000626108246442 1.0000626108246502 1.0000626108246427
          1.0000826677179575 1.0000826677179595 1.0000826677179673 1.0000826677179653 6.7368014676985615 13.133050572431651
          1.000082667717957 5.023554835747428 16.06669724829215 1.0000826677179626 1.0000826677179528 1.0000826677179662
        </DataArray>
        <DataArray type="Float64" Name="Continuous global L2-projection sigma_yx" format="ascii" RangeMin="-0.3046727776527408" RangeMax="1.0269286334514618">
          -1.5532869674894894e-17 -5.828030663320769e-17 6.436217956532164e-17 -3.1924228629338325e-17 1.3845714066606315e-16 -1.8130598625391055e-16
          -1.8325499801954365e-17 7.401497416505815e-18 4.55452004635126e-33 -8.756298728349374e-18 -2.797050337740368e-17 7.433420316746764e-18
          5.59720776875209e-17 8.955532430003347e-17 -7.836090876252928e-17 -0.0652986168861389 0.07569026947021465 0.2166791558265688
          -0.005456797778606376 0.06121377646923062 0.12788435071706775 1.78592501306064e-17 6.71499688346269e-17 -2.4172070381656212e-17
          -2.3936504233797045e-17 -3.8936188608676046e-16 2.161389591569935e-16 1.0269286334514618 0.552954494953156 0.07898035645484881
          0.8583083897829054 0.3435715138912201 -0.1711653620004654 8.612307947793256e-17 -7.47483829137711e-17 6.1105121426475476e-18
          -5.454104912352669e-16 4.441744128938798e-16 -2.050701914580807e-16 0.654214262962342 0.27414917945861755 -0.10591590404510466
          0.672188818454742 0.18375802040100137 -0.3046727776527408 3.8984580511159274e-16 -1.4536623241449226e-16 1.7154575100361687e-16
          1.6857368939002536e-16 -1.715900500753041e-16 6.72518060461232e-17 -1.9321281501019608e-16 2.301127567218611e-16 -1.296814248862683e-16
          1.3071198852851909e-16 -1.8503743541264546e-16 6.04455622347975e-17 -1.3949891101424497e-16 4.8541952572277034e-17 -2.7403991678010657e-17
        </DataArray>
        <DataArray type="Float64" Name="Continuous global L2-projection sigma_yy" format="ascii" RangeMin="-2.5471988220005137" RangeMax="72.16429895374816">
          45.80367420212917 28.904914749979664 12.006155297829986 46.18979888347247 28.86306561076111 11.536332338049975
          49.148493305546985 32.60113920562296 16.0537851056988 51.72195089069318 36.38218366006018 21.042416429427163
          43.06515951799187 28.250983175874396 13.834674648593072 43.346591527714644 29.293866136165008 15.291423048913195
          43.76506527429326 29.86966260644816 15.775355874730355 43.902232586665136 29.40274890132743 14.802685518690344
          39.75979664694633 25.88410276396437 10.903330937036062 42.53413671384297 29.550973037311145 15.93383595755792
          46.170475739451845 32.34094063754097 19.063861617149556 47.033565890032584 31.464875177328945 17.16432151367675
          36.995535066295155 19.928522438692877 2.035921502090646 43.71109810545502 27.69942534245054 11.058310596718835
          56.12709005773699 39.768710190160796 23.823062550783362 61.8312447591759 44.07071388263334 27.569255854366304
          35.232927566335185 16.342864372167323 -2.5471988220005137 44.19732753726639 25.577578787462173 6.957830037657967
          62.66024305702282 43.79341458405854 24.926586111094004 72.16429895374816 52.780002169627075 33.39570538550619
        </DataArray>
        <DataArray type="Float64" Name="Continuous global L2-projection sigma_yz" format="ascii" RangeMin="-1.399963249202227" RangeMax="1.77658719371347">
          1.504887495525122e-16 -6.624491858677823e-17 1.3026697394809032e-16 -1.7922142928698834e-16 -0.7935753614019333 -0.20995645602437987
          3.4891975859203785e-16 -0.45899368104051846 0.009762247641245317 -1.5096895721288136e-16 1.4730718514312728e-16 -3.6942394522560926e-16
          9.915053761789425e-17 -1.983010752357884e-16 1.5672181752505856e-16 1.4019003074491416e-16 1.4231250894028116 1.77658719371347
          -5.342919981666856e-16 1.0682509787124772 1.0776727640304502 2.933795653275934e-16 -6.20644605586792e-17 5.600246092107613e-16
          3.8456598064434054e-16 -6.295969642917463e-16 1.7904907974288877e-16 -4.134906739499366e-16 0.6652214363211453 0.46847800107842696
          2.251278468580873e-16 0.6048113544648457 0.28967318170579254 -1.5662691732131335e-16 2.506139488274149e-17 -4.458090500061472e-16
          -3.3353516148531363e-16 8.712745028369388e-16 3.811794680467775e-16 2.352577024126449e-16 -1.1214326159906411 -1.399963249202227
          -4.43389290073776e-16 -0.8417893117848138 -0.8492137451217818 2.9073246482898456e-16 -5.814649296579689e-16 -6.861830040144675e-16
          2.831065358098302e-16 -3.700743415417189e-16 -7.586524001605236e-16 -4.1818333500297284e-16 -1.0662346852743825 -0.9910340328559515
          1.3956790343681514e-15 -1.15008780964788 -0.7088551727935518 -8.327527982347625e-16 1.1580049818014987e-15 3.1620172643086626e-17
        </DataArray>
        <DataArray type="Float64" Name="Continuous global L2-projection sigma_zx" format="ascii" RangeMin="-0.9111980050802231" RangeMax="0.7024163454771044">
          2.955692086684527e-17 -4.573067773528861e-17 6.445405945442652e-17 -7.185928724959362e-17 1.4470782211801224e-16 -2.665536546950862e-16
          -9.301884223408303e-17 -2.302688085135143e-17 8.059408297973e-17 1.0290701862719838e-17 1.7265592135847847e-17 -5.222720177401026e-17
          2.7986038843760434e-18 1.1194415537504184e-17 -3.918045438126464e-17 -0.18720693141221997 0.1257988363504409 0.43880460411310224
          -0.4380663782358167 0.0006204843521118534 0.4393073469400406 -7.78844952704943e-17 -6.8476289506116576e-18 -6.2235922822047034e-18
          7.359457886409686e-18 -4.6133218070099377e-17 -4.68896658057921e-18 -0.11946141347289081 -0.07045907527208321 -0.021456737071275662
          0.34777903556823714 -0.018701553344726684 -0.3851821422576905 1.9920019979719432e-17 1.2630700746096645e-17 1.5212064108382537e-16
          -7.854134757881172e-17 1.0603165019104548e-16 -5.3015825095522757e-17 0.021391309797763925 -0.15515564382076277 -0.33170259743928904
          0.7024163454771044 -0.10439082980155948 -0.9111980050802231 -6.607556018840552e-17 -2.6430224075362225e-17 1.371076450946587e-51
          7.846579839424487e-17 -9.431718348177335e-17 1.213062594194729e-16 -1.1464178249011012e-16 1.13472419909922e-16 -1.7727596969650456e-16
          -6.30472599992023e-17 1.64477720366796e-17 8.059408297973e-17 -1.3744488661431662e-17 2.0084637399462063e-18 -3.8805660350167456e-17
        </DataArray>
        <DataArray type="Float64" Name="Continuous global L2-projection sigma_zy" format="ascii" RangeMin="-1.0629097738620286" RangeMax="0.6507463429914646">
          8.276984959734219e-20 4.433823979523992e-17 -4.485468076451371e-17 9.372183294115636e-17 -1.6542892240866623e-16 1.6278005245765678e-16
          -9.15899909362892e-17 5.95726755520235e-17 -6.021716708389861e-17 1.1055800523794538e-16 -1.0380120608435553e-16 3.9360442080492276e-17
          -1.469267039297424e-17 -0.023817741010947024 0.6031382067377516 -1.4019003074491416e-16 -0.3253243598621634 -0.073973637254556
          1.52654856619053e-16 0.011907083967816737 -0.3015238627594498 -1.3325578923085903e-16 0.6507463429914646 0.1479694725029962
          1.9428902930940242e-16 -0.38288715506184506 -0.31579033280233976 -6.891511232498943e-17 0.3016550371680328 -0.002614441878609519
          -1.1256392342904364e-16 0.19141485766532154 0.15787147938060433 1.6653345369377348e-16 -0.6034005949177068 0.005229668298401436
          1.7017014988859313e-16 -0.34997577811574776 -0.6195464618355515 -1.1762885120632246e-16 0.5313751594566195 -0.15744754793702048
          0 0.1749616378316884 0.3097267595465579 0 -1.0629097738620286 0.31494234270191096
          -8.131827837758042e-17 1.98432812623207e-16 -5.963282900034563e-17 8.862168844681703e-17 -2.6791283704695102e-17 1.7495214076718564e-17
          -7.024450059974472e-17 -5.910723209686797e-17 -5.603240350651895e-18 7.212968445404425e-17 1.7758335266512154e-16 -1.5702096901760017e-17
        </DataArray>
        <DataArray type="Float64" Name="Continuous global L2-projection sigma_zz" format="ascii" RangeMin="-2.5471988220005537" RangeMax="72.16429895374812">
          45.803674202129166 28.904914749979636 12.006155297829986 46.18979888347245 28.56009777776364 12.792916963565146
          49.14849330554703 31.10086794367741 16.04923995185273 51.72195089069322 36.38218366006016 21.042416429427224
          43.06515951799191 28.30497159435128 13.544783670710657 43.34659152771468 29.131496658560746 14.931576675812794
          43.76506527429319 30.22776432959942 15.94049150405457 43.90223258666513 29.453972890347274 15.005713194029376
          39.75979664694627 24.21049528200836 8.661193917070458 42.534136713843004 29.0481770638981 14.731374217893768
          46.170475739451845 34.09257745170562 19.917117008388686 47.03356589003258 32.59183184970881 18.150097809385187
          36.995535066295275 18.96796469476951 0.9403943232438519 43.71109810545496 27.354205712162262 10.985355401265176
          56.12709005773699 39.94546189001978 24.354816858307306 61.8312447591759 44.97682685538518 28.122408951594306
          35.232927566335114 16.34286437216738 -2.5471988220005537 44.19732753726642 25.639218150845476 7.813076066349174
          62.66024305702287 42.60823769445374 25.57845648989472 72.16429895374812 52.780002169627124 33.39570538550617
        </DataArray>
        <DataArray type="Float64" Name="Continuous global L2-projection u_x,x" format="ascii" RangeMin="-5.385884553194045" RangeMax="1.7308957629097732e-15">
          4.71553899499923e-16 -2.78753434532363e-17 -6.387966126741447e-16 -2.9672062178735263e-16 5.393331718817363e-16 1.47989119271072e-15
          1.1167645365442658e-15 -8.223886018339798e-16 -1.6118816595945996e-16 -5.76016870984416e-16 -1.8417018371901362e-17 7.017941600082528e-16
          -8.635691986074657e-16 6.524745056145296e-16 9.403309051503514e-16 -1.2844920754432672 -2.108660340309145 -2.932828605175021
          -1.3020291924476644 -1.9479146003723136 -2.5938000082969657 8.234128300160743e-16 6.152030189449541e-16 -2.0085687639407563e-15
          1.1298324411381782e-15 -7.420728339677465e-17 3.8160782292098016e-16 -4.0270855128765115 -4.401612460613251 -4.776139408349992
          -3.8929038941860177 -4.639394223690034 -5.385884553194045 -1.5487592637217662e-16 -3.8482029831479013e-16 -5.612028682684043e-16
          -5.931756416331378e-16 1.7308957629097732e-15 -2.7713535602071297e-15 -2.5542503297328927 -2.7412883639335672 -2.928326398134227
          -1.5082612335681933 -3.255974590778348 -5.003687947988511 1.0043485148637648e-15 -1.3743716519188357e-15 -1.6468392096347218e-15
          8.265447743481309e-16 -4.0346106764510653e-16 1.1151846103254322e-15 -1.365888352860453e-15 1.6863767083003785e-15 -2.540547667803955e-15
          1.1287006985941651e-15 -1.1973978042702746e-15 3.2237633191891997e-16 -1.020231193663163e-15 1.1932979019629513e-15 5.51239061881436e-16
        </DataArray>
        <DataArray type="Float64" Name="Continuous global L2-projection u_x,y" format="ascii" RangeMin="-15.562547210703599" RangeMax="16.98930914980276">
          -9.698911421134152e-16 1.7797259072899967e-15 7.617090414373891e-16 -1.9906700010175235e-16 1.6313524176459408e-16 3.9004667267846006e-16
          -4.6836125887514e-16 1.3024478687841414e-15 1.0285077478874962e-15 -9.87064697650102e-16 2.013311324708305e-15 -4.844123669981859e-15
          8.059979187003012e-16 -2.832084188001938 -7.785045720357502 1.4019003074491416e-15 -1.3530001940890832 -3.4097499211536935
          4.57964569857159e-16 1.4158296630636136 3.891938914063477 2.3986042061554627e-15 2.706406396198708 6.820523039363914
          0 -7.480557763549696 -15.562547210703599 -1.3783022464997886e-15 -3.7244285669260813 -8.49338022900342
          0 3.739717774903677 7.780106279004096 -8.881784197001252e-16 7.449974759612119 16.98930914980276
          0 -5.025922166977601 -9.252341133076373 -4.705154048252898e-16 -1.7240169826833496 -6.169380824998191
          -2.95592860049184e-16 2.5125840956289345 4.6254765605097194 3.1716268890434657e-16 3.448551308029022 12.340612956528135
          -1.2473246376337643e-16 1.7101875344964162e-15 -1.6101186043518925e-15 1.0143519091006506e-16 -4.597803366590811e-16 1.2958506326868467e-15
          -4.840724616545485e-16 4.246495852798085e-16 -1.5319307551210875e-15 1.3101392836475866e-16 -2.1232479263990437e-16 -1.6765252766148004e-15
        </DataArray>
        <DataArray type="Float64" Name="Continuous global L2-projection u_x,z" format="ascii" RangeMin="-11.836784060282822" RangeMax="16.06669724829215">
          1.0002807766537665 1.0002807766537618 1.000280776653769 1.0002807766537614 -3.025724757366049 -11.836784060282822
          1.0002807766537676 -2.7216060982602106 -10.090271291953023 1.0002807766537634 1.0002807766537674 1.0002807766537622
          0.9999202748617885 0.9999202748617938 0.9999202748617878 0.9999202748617936 -4.921771451381452 -11.121630691423436
          0.9999202748617882 -5.154585567412269 -11.73344556803542 0.9999202748617918 0.9999202748617874 0.9999202748617957
          0.9998859658116775 0.9998859658116784 0.999885965811677 0.9998859658116799 -0.22366898511566907 -0.36060299022773334
          0.9998859658116772 0.3967932288816361 -2.0668303140820674 0.9998859658116788 0.9998859658116762 0.999885965811688
          1.0000626108246473 1.0000626108246442 1.0000626108246438 1.0000626108246418 5.666397491082974 10.551930335740789
          1.0000626108246489 5.849856657901225 11.034044777183805 1.0000626108246442 1.0000626108246502 1.0000626108246427
          1.0000826677179575 1.0000826677179595 1.0000826677179673 1.0000826677179653 6.7368014676985615 13.133050572431651
          1.000082667717957 5.023554835747428 16.06669724829215 1.0000826677179626 1.0000826677179528 1.0000826677179662
        </DataArray>
        <DataArray type="Float64" Name="Continuous global L2-projection u_y,x" format="ascii" RangeMin="-0.3046727776527408" RangeMax="1.0269286334514618">
          -1.5532869674894894e-17 -5.828030663320769e-17 6.436217956532164e-17 -3.1924228629338325e-17 1.3845714066606315e-16 -1.8130598625391055e-16
          -1.8325499801954365e-17 7.401497416505815e-18 4.55452004635126e-33 -8.756298728349374e-18 -2.797050337740368e-17 7.433420316746764e-18
          5.59720776875209e-17 8.955532430003347e-17 -7.836090876252928e-17 -0.0652986168861389 0.07569026947021465 0.2166791558265688
          -0.005456797778606376 0.06121377646923062 0.12788435071706775 1.78592501306064e-17 6.71499688346269e-17 -2.4172070381656212e-17
          -2.3936504233797045e-17 -3.8936188608676046e-16 2.161389591569935e-16 1.0269286334514618 0.552954494953156 0.07898035645484881
          0.8583083897829054 0.3435715138912201 -0.1711653620004654 8.612307947793256e-17 -7.47483829137711e-17 6.1105121426475476e-18
          -5.454104912352669e-16 4.441744128938798e-16 -2.050701914580807e-16 0.654214262962342 0.27414917945861755 -0.10591590404510466
          0.672188818454742 0.18375802040100137 -0.3046727776527408 3.8984580511159274e-16 -1.4536623241449226e-16 1.7154575100361687e-16
          1.6857368939002536e-16 -1.715900500753041e-16 6.72518060461232e-17 -1.9321281501019608e-16 2.301127567218611e-16 -1.296814248862683e-16
          1.3071198852851909e-16 -1.8503743541264546e-16 6.04455622347975e-17 -1.3949891101424497e-16 4.8541952572277034e-17 -2.7403991678010657e-17
        </DataArray>
        <DataArray type="Float64" Name="Continuous global L2-projection u_y,y" format="ascii" RangeMin="-1.12695667237991" RangeMax="2.2421370199655835">
          4.185309170691905e-17 -2.75776411613536e-16 3.8031479199088474e-16 6.96734661446027e-17 1.4075301805275134e-17 -1.1025165855597355e-16
          -1.7218315148905014e-16 2.576261223173986e-16 -1.0062742814667897e-16 1.5490227362493838e-16 -2.6296500996757237e-16 2.0412586227661637e-16
          -7.556230487815324e-17 -0.05398841847688076 0.2898909778824257 -1.5333284612724986e-16 0.025608152265378843 0.10149860882866432
          3.4347342739286925e-16 0.026990159637657853 -0.14492374459744584 -3.081540125963615e-16 -0.051223989019833105 -0.20302767533903418
          1.1102230246251568e-16 1.673607481956015 2.2421370199655835 3.1011800546245246e-16 0.5633938046413218 0.4928142060613021
          -6.003409249548995e-16 -0.8366782058658593 -1.1209003302122753 5.551115123125783e-16 -1.12695667237991 -0.9857762957084125
          -1.361361199108745e-16 0.9605577439233184 1.0955271788468401 -3.136769365501932e-16 0.45298852002482576 0.27653505732239886
          2.95592860049184e-16 -0.4802068217793988 -0.5476814153600617 7.929067222608664e-17 -0.906112972751768 -0.5531530972280441
          -1.3370095616934919e-16 -8.53149336570719e-18 -2.4081354289625397e-16 2.674019123386984e-16 -4.270262231186483e-16 3.7060478332999233e-16
          -1.6705283319638585e-16 1.7345009973696473e-16 -5.031910416932013e-16 -1.1076261271120944e-16 5.794087649066115e-16 2.955091592156939e-17
        </DataArray>
        <DataArray type="Float64" Name="Continuous global L2-projection u_y,z" format="ascii" RangeMin="-1.399963249202227" RangeMax="1.77658719371347">
          1.504887495525122e-16 -6.624491858677823e-17 1.3026697394809032e-16 -1.7922142928698834e-16 -0.7935753614019333 -0.20995645602437987
          3.4891975859203785e-16 -0.45899368104051846 0.009762247641245317 -1.5096895721288136e-16 1.4730718514312728e-16 -3.6942394522560926e-16
          9.915053761789425e-17 -1.983010752357884e-16 1.5672181752505856e-16 1.4019003074491416e-16 1.4231250894028116 1.77658719371347
          -5.342919981666856e-16 1.0682509787124772 1.0776727640304502 2.933795653275934e-16 -6.20644605586792e-17 5.600246092107613e-16
          3.8456598064434054e-16 -6.295969642917463e-16 1.7904907974288877e-16 -4.134906739499366e-16 0.6652214363211453 0.46847800107842696
          2.251278468580873e-16 0.6048113544648457 0.28967318170579254 -1.5662691732131335e-16 2.506139488274149e-17 -4.458090500061472e-16
          -3.3353516148531363e-16 8.712745028369388e-16 3.811794680467775e-16 2.352577024126449e-16 -1.1214326159906411 -1.399963249202227
          -4.43389290073776e-16 -0.8417893117848138 -0.8492137451217818 2.9073246482898456e-16 -5.814649296579689e-16 -6.861830040144675e-16
          2.831065358098302e-16 -3.700743415417189e-16 -7.586524001605236e-16 -4.1818333500297284e-16 -1.0662346852743825 -0.9910340328559515
          1.3956790343681514e-15 -1.15008780964788 -0.7088551727935518 -8.327527982347625e-16 1.1580049818014987e-15 3.1620172643086626e-17
        </DataArray>
        <DataArray type="Float64" Name="Continuous global L2-projection u_z,x" format="ascii" RangeMin="-0.9111980050802231" RangeMax="0.7024163454771044">
          2.955692086684527e-17 -4.573067773528861e-17 6.445405945442652e-17 -7.185928724959362e-17 1.4470782211801224e-16 -2.665536546950862e-16
          -9.301884223408303e-17 -2.302688085135143e-17 8.059408297973e-17 1.0290701862719838e-17 1.7265592135847847e-17 -5.222720177401026e-17
          2.7986038843760434e-18 1.1194415537504184e-17 -3.918045438126464e-17 -0.18720693141221997 0.1257988363504409 0.43880460411310224
          -0.4380663782358167 0.0006204843521118534 0.4393073469400406 -7.78844952704943e-17 -6.8476289506116576e-18 -6.2235922822047034e-18
          7.359457886409686e-18 -4.6133218070099377e-17 -4.68896658057921e-18 -0.11946141347289081 -0.07045907527208321 -0.021456737071275662
          0.34777903556823714 -0.018701553344726684 -0.3851821422576905 1.9920019979719432e-17 1.2630700746096645e-17 1.5212064108382537e-16
          -7.854134757881172e-17 1.0603165019104548e-16 -5.3015825095522757e-17 0.021391309797763925 -0.15515564382076277 -0.33170259743928904
          0.7024163454771044 -0.10439082980155948 -0.9111980050802231 -6.607556018840552e-17 -2.6430224075362225e-17 1.371076450946587e-51
          7.846579839424487e-17 -9.431718348177335e-17 1.213062594194729e-16 -1.1464178249011012e-16 1.13472419909922e-16 -1.7727596969650456e-16
          -6.30472599992023e-17 1.64477720366796e-17 8.059408297973e-17 -1.3744488661431662e-17 2.0084637399462063e-18 -3.8805660350167456e-17
        </DataArray>
        <DataArray type="Float64" Name="Continuous global L2-projection u_z,y" format="ascii" RangeMin="-1.0629097738620286" RangeMax="0.6507463429914646">
          8.276984959734219e-20 4.433823979523992e-17 -4.485468076451371e-17 9.372183294115636e-17 -1.6542892240866623e-16 1.6278005245765678e-16
          -9.15899909362892e-17 5.95726755520235e-17 -6.021716708389861e-17 1.1055800523794538e-16 -1.0380120608435553e-16 3.9360442080492276e-17
          -1.469267039297424e-17 -0.023817741010947024 0.6031382067377516 -1.4019003074491416e-16 -0.3253243598621634 -0.073973637254556
          1.52654856619053e-16 0.011907083967816737 -0.3015238627594498 -1.3325578923085903e-16 0.6507463429914646 0.1479694725029962
          1.9428902930940242e-16 -0.38288715506184506 -0.31579033280233976 -6.891511232498943e-17 0.3016550371680328 -0.002614441878609519
          -1.1256392342904364e-16 0.19141485766532154 0.15787147938060433 1.6653345369377348e-16 -0.6034005949177068 0.005229668298401436
          1.7017014988859313e-16 -0.34997577811574776 -0.6195464618355515 -1.1762885120632246e-16 0.5313751594566195 -0.15744754793702048
          0 0.1749616378316884 0.3097267595465579 0 -1.0629097738620286 0.31494234270191096
          -8.131827837758042e-17 1.98432812623207e-16 -5.963282900034563e-17 8.862168844681703e-17 -2.6791283704695102e-17 1.7495214076718564e-17
          -7.024450059974472e-17 -5.910723209686797e-17 -5.603240350651895e-18 7.212968445404425e-17 1.7758335266512154e-16 -1.5702096901760017e-17
        </DataArray>
        <DataArray type="Float64" Name="Continuous global L2-projection u_z,z" format="ascii" RangeMin="-1.5002712619454979" RangeMax="1.2565846255151873">
          -1.476911875460242e-17 6.45193296746176e-17 1.8978494008772251e-16 1.5930793714398963e-16 -0.30296783299749425 1.2565846255151873
          -2.5375982443057297e-16 -1.5002712619454979 -0.004545153846067916 2.7474144435029504e-16 -2.9572306427001715e-16 2.0814317292520262e-16
          6.556729100538166e-17 -4.717646547948191e-17 9.79511359531616e-17 -1.3142815382335702e-16 -0.13676132533887111 -0.2583477642717472
          0 0.38509188278888173 0.020211884726773488 3.531194130176013e-17 1.0843858417544652e-16 -4.3660747588607123e-17
          3.786211087834976e-17 -1.302366237787207e-16 1.8160755972230287e-16 -2.1535972601559197e-17 0.06059783122829935 -0.7096475336028871
          -7.504261561936244e-17 0.9149586082987469 -0.26764493897306274 2.0288951471136912e-16 -3.5709195153577585e-16 2.152572999517124e-16
          9.196908742329102e-18 -6.093635495680648e-17 -5.4616897465893314e-17 2.9407212801580615e-17 0.10776888973651345 0.20357986186876548
          3.6949107506148e-17 -0.3034551219203907 -0.01592710783614829 -8.362688086345081e-17 1.6725376172690157e-16 -6.602438878646952e-51
          1.1041572727348077e-17 -2.3129646346357432e-17 -2.1047978175185259e-16 -9.956746071499353e-17 0.061639363383349105 0.8552460286911874
          3.806397366458595e-16 -1.1851768896047568 0.6518703788006883 -1.8387817630610455e-16 3.201835233538966e-16 -2.1560291290820614e-16
        </DataArray>
        <DataArray type="Float64" Name="_z" format="ascii" RangeMin="-0.15515564382076263" RangeMax="0.21674031019210815">
          0 0 0 0 0 0
          0 0 0 0 0 0
          0 0 0 0 -0.041435837745666504 0.12579883635044098
          0 -0.14591871201992035 0.0006204843521118164 0 0 0
          0 0 0 0 -0.051563650369644165 -0.07045907527208328
          0 0.11280941963195801 -0.018701553344726562 0 0 0
          0 0 0 0 -0.018728837370872498 -0.15515564382076263
          0 0.21674031019210815 -0.10439082980155945 0 0 0
          0 0 0 0 0 0
          0 0 0 0 0 0
        </DataArray>
        <DataArray type="Float64" Name="p-rec" format="ascii" RangeMin="1.2954e-320" RangeMax="1.2954e-320">
          1.2954e-320 1.2954e-320 1.2954e-320 1.2954e-320 1.2954e-320 1.2954e-320
          1.2954e-320 1.2954e-320 1.2954e-320 1.2954e-320 1.2954e-320 1.2954e-320
          1.2954e-320 1.2954e-320 1.2954e-320 1.2954e-320 1.2954e-320 1.2954e-320