<?xml version="1.0"?>
<VTKFile type="UnstructuredGrid" version="0.1" byte_order="LittleEndian" header_type="UInt32" compressor="vtkZLibDataCompressor">
  <UnstructuredGrid>
    <Piece NumberOfPoints="81" NumberOfCells="64">
      <PointData>
        <DataArray type="Float64" Name="theta" format="ascii" RangeMin="0" RangeMax="0.098506735554">
          0 0 0 0 0 0
          0 0 0 0 2.7430399464e-06 1.1506781627e-05
          2.6310808546e-05 4.7191495853e-05 7.4200406884e-05 0.00010739269035 0.0001468023824 0.00019239596788
          0 2.3514470651e-05 9.5134820824e-05 0.00021489536105 0.00038287014105 0.00059917237313
          0.00086393557235 0.0011772696228 0.001539167743 0 8.0357240898e-05 0.00032303542004
          0.00072807342694 0.0012955829571 0.0020257534864 0.0029188380501 0.0039751011766 0.0051946911327
          0 0.00019134188897 0.00076741830531 0.0017282576478 0.0030740024101 0.004804926487
          0.0069214428607 0.0094240821245 0.012313341944 0 0.00037457537001 0.0015005743663
          0.0033779982828 0.0060070019232 0.0093879233891 0.013521345034 0.018408152016 0.024049495985
          0 0.00064819857414 0.0025948813982 0.0058400154633 0.010383734286 0.016226375491
          0.023368589296 0.031811613428 0.041557529062 0 0.0010303652812 0.0041227787973
          0.0092771947987 0.016493693207 0.02577248559 0.037114062893 0.050519443689 0.065991816982
          0 0.001539167743 0.0061566709721 0.013852509687 0.024626683888 0.038479193576
          0.055410038749 0.075419219408 0.098506735554
        </DataArray>
        <DataArray type="Float64" Name="theta_x" format="ascii" RangeMin="-0.00076958387151" RangeMax="0.29475062279">
          0 -1.4105057434e-05 -5.2173157514e-05 -0.00011403815483 -0.00019941330693 -0.00030790806105
          -0.0004391316969 -0.00059289320318 -0.00076958387151 0 7.9116267113e-05 0.00032077910305
          0.0007251300268 0.0012924653175 0.0020232318436 0.0029179463764 0.0039770162378 0.0052003596448
          0 0.00029187051559 0.0011718128056 0.0026399095476 0.0046964659153 0.0073420329397
          0.010577391754 0.014403423708 0.01882079378 0 0.00065331506976 0.0026172604928
          0.0058918164762 0.010477265949 0.016374269062 0.023583954613 0.032108002932 0.041948322951
          0 0.0011587164522 0.0046376957413 0.010436784772 0.018556170997 0.028996484333
          0.041759113798 0.056846558753 0.07426284295 0 0.0018093663487 0.0072378113394
          0.016285070278 0.028951114981 0.045236261828 0.065141586077 0.088670271406 0.11582837462
          0 0.002604499381 0.010414255196 0.023429043658 0.041648559155 0.065072312838
          0.093700055664 0.12753281451 0.16658089711 0 0.0035489145228 0.01418719928
          0.031914956283 0.056731651179 0.088635851561 0.12762505143 0.17369417506 0.22684051464
          0 0.0046130268864 0.018439815486 0.041481033807 0.073735921041 0.11520275649
          0.16587601827 0.22574552649 0.29475062279
        </DataArray>
        <DataArray type="Float64" Name="theta_y" format="ascii" RangeMin="-9.2351300507e-06" RangeMax="0.19701347111">
          0 0 0 0 0 0
          0 0 0 -2.1149943783e-06 4.6014786422e-05 9.4243287899e-05
          0.00014269408138 0.00019150307905 0.00024075459115 0.00029040759786 0.00034006303835 0.00038931905307
          -4.2761696075e-06 0.0003805200155 0.000765470343 0.0011508464193 0.0015369813886 0.0019241296355
          0.0023123346 0.0027009747555 0.0030892463286 -6.4155330493e-06 0.0012921261367 0.0025907921542
          0.0038900388915 0.0051904956817 0.0064927489203 0.0077971737725 0.0091033345332 0.010410117673
          -8.25320391e-06 0.0030696759683 0.0061475831643 0.0092261293298 0.01230633221 0.015389280265
          0.018476080621 0.02156721641 0.024661391592 -9.2351300507e-06 0.00600233213 0.012013622072
          0.018025468651 0.024039247842 0.030056647698 0.03607984551 0.042111595301 0.048151413118
          -8.5850397224e-06 0.010379593746 0.020767227308 0.031155182858 0.041544967961 0.051938530275
          0.062339210695 0.072753819517 0.083183944715 -5.4977144008e-06 0.016491185542 0.032987305975
          0.049483523171 0.065980816118 0.082480885433 0.098985701224 0.1155075664 0.13205703125
          -1.3877787808e-18 0.024626683888 0.049253367777 0.073880051665 0.098506735554 0.12313341944
          0.14776010333 0.17238678722 0.19701347111
        </DataArray>
      </PointData>
      <CellData>
      </CellData>
      <Points>
        <DataArray type="Float64" Name="Points" NumberOfComponents="3" format="ascii" RangeMin="0" RangeMax="1.4142135624">
          0 0 0 0 0.125 0
          0 0.25 0 0 0.375 0
          0 0.5 0 0 0.625 0
          0 0.75 0 0 0.875 0
          0 1 0 0.125 0 0
          0.125 0.125 0 0.125 0.25 0
          0.125 0.375 0 0.125 0.5 0
          0.125 0.625 0 0.125 0.75 0
          0.125 0.875 0 0.125 1 0
          0.25 0 0 0.25 0.125 0
          0.25 0.25 0 0.25 0.375 0
          0.25 0.5 0 0.25 0.625 0
          0.25 0.75 0 0.25 0.875 0
          0.25 1 0 0.375 0 0
          0.375 0.125 0 0.375 0.25 0
          0.375 0.375 0 0.375 0.5 0
          0.375 0.625 0 0.375 0.75 0
          0.375 0.875 0 0.375 1 0
          0.5 0 0 0.5 0.125 0
          0.5 0.25 0 0.5 0.375 0
          0.5 0.5 0 0.5 0.625 0
          0.5 0.75 0 0.5 0.875 0
          0.5 1 0 0.625 0 0
          0.625 0.125 0 0.625 0.25 0
          0.625 0.375 0 0.625 0.5 0
          0.625 0.625 0 0.625 0.75 0
          0.625 0.875 0 0.625 1 0
          0.75 0 0 0.75 0.125 0
          0.75 0.25 0 0.75 0.375 0
          0.75 0.5 0 0.75 0.625 0
          0.75 0.75 0 0.75 0.875 0
          0.75 1 0 0.875 0 0
          0.875 0.125 0 0.875 0.25 0
          0.875 0.375 0 0.875 0.5 0
          0.875 0.625 0 0.875 0.75 0
          0.875 0.875 0 0.875 1 0
          1 0 0 1 0.125 0
          1 0.25 0 1 0.375 0
          1 0.5 0 1 0.625 0
          1 0.75 0 1 0.875 0
          1 1 0
        </DataArray>
      </Points>
      <Cells>
        <DataArray type="Int64" Name="connectivity" format="ascii" RangeMin="0" RangeMax="80">
          0 9 10 1 1 10
          11 2 2 11 12 3
          3 12 13 4 4 13
          14 5 5 14 15 6
          6 15 16 7 7 16
          17 8 9 18 19 10
          10 19 20 11 11 20
          21 12 12 21 22 13
          13 22 23 14 14 23
          24 15 15 24 25 16
          16 25 26 17 18 27
          28 19 19 28 29 20
          20 29 30 21 21 30
          31 22 22 31 32 23
          23 32 33 24 24 33
          34 25 25 34 35 26
          27 36 37 28 28 37
          38 29 29 38 39 30
          30 39 40 31 31 40
          41 32 32 41 42 33
          33 42 43 34 34 43
          44 35 36 45 46 37
          37 46 47 38 38 47
          48 39 39 48 49 40
          40 49 50 41 41 50
          51 42 42 51 52 43
          43 52 53 44 45 54
          55 46 46 55 56 47
          47 56 57 48 48 57
          58 49 49 58 59 50
          50 59 60 51 51 60
          61 52 52 61 62 53
          54 63 64 55 55 64
          65 56 56 65 66 57
          57 66 67 58 58 67
          68 59 59 68 69 60
          60 69 70 61 61 70
          71 62 63 72 73 64
          64 73 74 65 65 74
          75 66 66 75 76 67
          67 76 77 68 68 77
          78 69 69 78 79 70
          70 79 80 71
        </DataArray>
        <DataArray type="Int64" Name="offsets" format="ascii" RangeMin="4" RangeMax="256">
          4 8 12 16 20 24
          28 32 36 40 44 48
          52 56 60 64 68 72
          76 80 84 88 92 96
          100 104 108 112 116 120
          124 128 132 136 140 144
          148 152 156 160 164 168
          172 176 180 184 188 192
          196 200 204 208 212 216
          220 224 228 232 236 240
          244 248 252 256
        </DataArray>
        <DataArray type="UInt8" Name="types" format="ascii" RangeMin="9" RangeMax="9">
          9 9 9 9 9 9
          9 9 9 9 9 9
          9 9 9 9 9 9
          9 9 9 9 9 9
          9 9 9 9 9 9
          9 9 9 9 9 9
          9 9 9 9 9 9
          9 9 9 9 9 9
          9 9 9 9 9 9
          9 9 9 9 9 9
          9 9 9 9
        </DataArray>
      </Cells>
    </Piece>
  </UnstructuredGrid>
</VTKFile>
