<?xml version="1.0"?>
<VTKFile type="UnstructuredGrid" version="0.1" byte_order="LittleEndian" header_type="UInt32" compressor="vtkZLibDataCompressor">
  <UnstructuredGrid>
    <Piece NumberOfPoints="81" NumberOfCells="64">
      <PointData>
        <DataArray type="Float64" Name="theta" format="ascii" RangeMin="0" RangeMax="0.21473922908">
          0 0 0 0 0 0
          0 0 0 0 6.3243714615e-06 2.5764544305e-05
          5.833842204e-05 0.00010407678275 0.00016302177245 0.00023521757525 0.00032069071291 0.0004194125568
          0 5.196386548e-05 0.00020879080313 0.00047051233746 0.00083719088066 0.0013089189087
          0.001885803863 0.0025679334446 0.0033553004544 0 0.00017624497391 0.00070636401551
          0.0015903933808 0.0028284267597 0.0044206188512 0.0063671744076 0.0086683073958 0.011324139033
          0 0.00041851580367 0.0016758153545 0.0037719265312 0.0067069683103 0.010481164526
          0.015094851021 0.020548461169 0.026842403635 0 0.00081815321805 0.0032745404265
          0.0073691665728 0.013102160423 0.020473798647 0.029484557662 0.04013516396 0.052426569599
          0 0.0014145612835 0.0056600051627 0.012736306976 0.022643577341 0.03538209349
          0.050952390292 0.069355493223 0.090593112268 0 0.0022471551227 0.0089897276058
          0.020227680126 0.0359610778 0.056190093459 0.080915132715 0.11013704586 0.14385850698
          0 0.0033553004544 0.013421201817 0.030197704089 0.05368480727 0.083882511359
          0.12079081636 0.16440972226 0.21473922908
        </DataArray>
        <DataArray type="Float64" Name="theta_x" format="ascii" RangeMin="-0.0016776502272" RangeMax="0.64254003701">
          0 -2.8029498368e-05 -0.00010839527225 -0.00024094568322 -0.00042543756874 -0.00066155143464
          -0.00094897539354 -0.0012875640962 -0.0016776502272 0 0.00017528085482 0.00070487362369
          0.0015889081461 0.0028276342721 0.0044214170398 0.0063706719051 0.0086757231348 0.011336496076
          0 0.00063918806479 0.0025604592302 0.0057638916054 0.010249740117 0.016018454274
          0.023070667578 0.031407095514 0.041028288312 0 0.0014270500347 0.0057115540734
          0.012853500903 0.022853124288 0.035710963832 0.051427941263 0.070005437631 0.091445021309
          0 0.0025281737492 0.010115001973 0.022760357177 0.040464391905 0.063227622476
          0.091051193909 0.12393716587 0.16188888561 0 0.0039449712825 0.015780079243
          0.035505098176 0.06312000151 0.098625054789 0.14202115943 0.19331097721 0.25249944312
          0 0.0056754539094 0.022698596432 0.051069228007 0.090787088023 0.14185177565
          0.20426310617 0.27802199661 0.36313713193 0 0.0077303662098 0.030914331902
          0.069551967479 0.1236428264 0.19318572527 0.27817860524 0.37861726392 0.4944997615
          0 0.0100460023 0.040173705106 0.090383674738 0.16067531128 0.25104724453
          0.36149489643 0.49200974919 0.64254003701
        </DataArray>
        <DataArray type="Float64" Name="theta_y" format="ascii" RangeMin="-7.8186109611e-06" RangeMax="0.42947845816">
          0 0 0 0 0 0
          0 0 0 -1.8445536684e-06 0.00010304634432 0.00020803190551
          0.00031321184116 0.00041868867767 0.00052452330597 0.0006306768465 0.00073682170969 0.00084263230496
          -3.7073299884e-06 0.0008351442558 0.0016741474953 0.0025135218755 0.0033535237325 0.0041943460095
          0.0050360156441 0.005878025274 0.0067197236365 -5.5175026536e-06 0.0028254392355 0.0056565305857
          0.0084881262717 0.011320719599 0.014154771183 0.01699057803 0.019827794061 0.02266552563
          -7.0386789625e-06 0.0067032593777 0.013413573757 0.020124441364 0.026836672648 0.033551138574
          0.040268742653 0.046989898082 0.053713552495 -7.8186109611e-06 0.013098186503 0.026203993241
          0.0393102814 0.052418158249 0.065528995492 0.078644580449 0.091767211821 0.10489653062
          -7.2286462024e-06 0.022640074327 0.045286947888 0.067934100515 0.090582758735 0.11323451552
          0.13589216258 0.15856130044 0.18124313799 -4.6138787916e-06 0.035958967853 0.071922090149
          0.10788529135 0.14384936797 0.1798157275 0.21578602431 0.25177060344 0.28777833156
          -5.5511151231e-18 0.05368480727 0.10736961454 0.16105442181 0.21473922908 0.26842403635
          0.32210884362 0.37579365089 0.42947845816
        </DataArray>
      </PointData>
      <CellData>
      </CellData>
      <Points>
        <DataArray type="Float64" Name="Points" NumberOfComponents="3" format="ascii" RangeMin="0" RangeMax="1.4142135624">
          0 0 0 0 0.125 0
          0 0.25 0 0 0.375 0
          0 0.5 0 0 0.625 0
          0 0.75 0 0 0.875 0
          0 1 0 0.125 0 0
          0.125 0.125 0 0.125 0.25 0
          0.125 0.375 0 0.125 0.5 0
          0.125 0.625 0 0.125 0.75 0
          0.125 0.875 0 0.125 1 0
          0.25 0 0 0.25 0.125 0
          0.25 0.25 0 0.25 0.375 0
          0.25 0.5 0 0.25 0.625 0
          0.25 0.75 0 0.25 0.875 0
          0.25 1 0 0.375 0 0
          0.375 0.125 0 0.375 0.25 0
          0.375 0.375 0 0.375 0.5 0
          0.375 0.625 0 0.375 0.75 0
          0.375 0.875 0 0.375 1 0
          0.5 0 0 0.5 0.125 0
          0.5 0.25 0 0.5 0.375 0
          0.5 0.5 0 0.5 0.625 0
          0.5 0.75 0 0.5 0.875 0
          0.5 1 0 0.625 0 0
          0.625 0.125 0 0.625 0.25 0
          0.625 0.375 0 0.625 0.5 0
          0.625 0.625 0 0.625 0.75 0
          0.625 0.875 0 0.625 1 0
          0.75 0 0 0.75 0.125 0
          0.75 0.25 0 0.75 0.375 0
          0.75 0.5 0 0.75 0.625 0
          0.75 0.75 0 0.75 0.875 0
          0.75 1 0 0.875 0 0
          0.875 0.125 0 0.875 0.25 0
          0.875 0.375 0 0.875 0.5 0
          0.875 0.625 0 0.875 0.75 0
          0.875 0.875 0 0.875 1 0
          1 0 0 1 0.125 0
          1 0.25 0 1 0.375 0
          1 0.5 0 1 0.625 0
          1 0.75 0 1 0.875 0
          1 1 0
        </DataArray>
      </Points>
      <Cells>
        <DataArray type="Int64" Name="connectivity" format="ascii" RangeMin="0" RangeMax="80">
          0 9 10 1 1 10
          11 2 2 11 12 3
          3 12 13 4 4 13
          14 5 5 14 15 6
          6 15 16 7 7 16
          17 8 9 18 19 10
          10 19 20 11 11 20
          21 12 12 21 22 13
          13 22 23 14 14 23
          24 15 15 24 25 16
          16 25 26 17 18 27
          28 19 19 28 29 20
          20 29 30 21 21 30
          31 22 22 31 32 23
          23 32 33 24 24 33
          34 25 25 34 35 26
          27 36 37 28 28 37
          38 29 29 38 39 30
          30 39 40 31 31 40
          41 32 32 41 42 33
          33 42 43 34 34 43
          44 35 36 45 46 37
          37 46 47 38 38 47
          48 39 39 48 49 40
          40 49 50 41 41 50
          51 42 42 51 52 43
          43 52 53 44 45 54
          55 46 46 55 56 47
          47 56 57 48 48 57
          58 49 49 58 59 50
          50 59 60 51 51 60
          61 52 52 61 62 53
          54 63 64 55 55 64
          65 56 56 65 66 57
          57 66 67 58 58 67
          68 59 59 68 69 60
          60 69 70 61 61 70
          71 62 63 72 73 64
          64 73 74 65 65 74
          75 66 66 75 76 67
          67 76 77 68 68 77
          78 69 69 78 79 70
          70 79 80 71
        </DataArray>
        <DataArray type="Int64" Name="offsets" format="ascii" RangeMin="4" RangeMax="256">
          4 8 12 16 20 24
          28 32 36 40 44 48
          52 56 60 64 68 72
          76 80 84 88 92 96
          100 104 108 112 116 120
          124 128 132 136 140 144
          148 152 156 160 164 168
          172 176 180 184 188 192
          196 200 204 208 212 216
          220 224 228 232 236 240
          244 248 252 256
        </DataArray>
        <DataArray type="UInt8" Name="types" format="ascii" RangeMin="9" RangeMax="9">
          9 9 9 9 9 9
          9 9 9 9 9 9
          9 9 9 9 9 9
          9 9 9 9 9 9
          9 9 9 9 9 9
          9 9 9 9 9 9
          9 9 9 9 9 9
          9 9 9 9 9 9
          9 9 9 9 9 9
          9 9 9 9 9 9
          9 9 9 9
        </DataArray>
      </Cells>
    </Piece>
  </UnstructuredGrid>
</VTKFile>
