<?xml version="1.0"?>
<VTKFile type="UnstructuredGrid" version="0.1" byte_order="LittleEndian" header_type="UInt32" compressor="vtkZLibDataCompressor">
  <UnstructuredGrid>
    <Piece NumberOfPoints="81" NumberOfCells="64">
      <PointData>
        <DataArray type="Float64" Name="theta" format="ascii" RangeMin="0" RangeMax="0.23911869697">
          0 0 0 0 0 0
          0 0 0 0 7.0831376641e-06 2.8769623548e-05
          6.5076284556e-05 0.00011603189545 0.00018167572256 0.0002620487726 0.00035717541957 0.00046702870501
          0 5.7945923802e-05 0.00023265864029 0.00052416781981 0.00093253179856 0.0014578367011
          0.0021001822048 0.0028596491218 0.0037362296401 0 0.00019637859416 0.00078680834279
          0.0017713234823 0.00315001156 0.0049230165764 0.0070905284494 0.0096527445499 0.012609775035
          0 0.00046619148336 0.0018664027221 0.0042006603024 0.0074690753693 0.011671856216
          0.016809314289 0.022881849864 0.029889837121 0 0.00091122159344 0.0036466855172
          0.0082063970862 0.014590476554 0.022799181284 0.032832953198 0.044692463448 0.058378588127
          0 0.0015753310228 0.0063029654263 0.014182880936 0.025215180807 0.039400122984
          0.056738203762 0.077230372426 0.10087820028 0 0.0025023917889 0.010010598725
          0.02252458634 0.040044415078 0.062570245348 0.090102453457 0.12264182766 0.16019084582
          0 0.0037362296401 0.01494491856 0.033626066761 0.059779674242 0.093405741003
          0.13450426704 0.18307525236 0.23911869697
        </DataArray>
        <DataArray type="Float64" Name="theta_x" format="ascii" RangeMin="-0.0018681148201" RangeMax="0.71548797608">
          0 -3.0888813536e-05 -0.00012007080343 -0.00026740352939 -0.00047265963228 -0.00073554135006
          -0.0010557592047 -0.001433179839 -0.0018681148201 0 0.00019551091873 0.00078555197628
          0.0017702453385 0.0031498245462 0.0049246295923 0.00709504592 0.0096613722881 0.01262353498
          0 0.00071209286285 0.0028518354349 0.0064193017321 0.011414729909 0.017838538232
          0.025691314237 0.034973718007 0.045686253424 0 0.0015893865119 0.0063606744298
          0.014313854597 0.025449145267 0.039767048335 0.057268418311 0.07795453184 0.10182682705
          0 0.0028154459714 0.011263928604 0.025345330127 0.045059792753 0.070407796223
          0.10139040259 0.13800951469 0.18026822368 0 0.0043929136366 0.017571823525
          0.039536519962 0.070286978021 0.10982344496 0.15814675812 0.21525938478 0.28116584977
          0 0.006319537471 0.025275136778 0.056866610368 0.10109371312 0.15795607062
          0.22745351182 0.3095868986 0.40436429887 0 0.0086073077915 0.034422578466
          0.077445873952 0.13767677603 0.21511418137 0.30975617927 0.42159887848 0.55064060315
          0 0.011185371534 0.044731892716 0.10064009232 0.17890942063 0.27953861775
          0.40252343759 0.54785598854 0.71548797608
        </DataArray>
        <DataArray type="Float64" Name="theta_y" format="ascii" RangeMin="-7.295691248e-06" RangeMax="0.47823739393">
          0 0 0 0 0 0
          0 0 0 -1.7259060411e-06 0.00011506734033 0.00023194981759
          0.00034901445467 0.00046635615539 0.00058403062908 0.0007020001389 0.00081995884198 0.0009376046463
          -3.4673945952e-06 0.00093061663126 0.0018648440963 0.0027994194633 0.0037345801884 0.004670503609
          0.0056072111569 0.0065442269098 0.0074809453145 -5.1571077215e-06 0.0031472172752 0.006299720426
          0.0094526965906 0.012606602982 0.015761864526 0.018918750321 0.022076928699 0.025235568239
          -6.5737138759e-06 0.0074656084118 0.01493781035 0.022410531698 0.029884524172 0.037360592498
          0.044839566271 0.052321806607 0.059806324708 -7.295691248e-06 0.01458676448 0.029180645359
          0.043774979135 0.058370793008 0.072969357132 0.087572316828 0.10218177118 0.11679737379
          -6.738984274e-06 0.025211910992 0.050430166675 0.075648686177 0.10086860844 0.12609140873
          0.15131967375 0.17655853089 0.2018090296 -4.2977111771e-06 0.040042447993 0.080088768966
          0.12013516385 0.16018237123 0.20023169702 0.24028467481 0.28035088826 0.32043855124
          -5.5511151231e-18 0.059779674242 0.11955934848 0.17933902272 0.23911869697 0.29889837121
          0.35867804545 0.41845771969 0.47823739393
        </DataArray>
      </PointData>
      <CellData>
      </CellData>
      <Points>
        <DataArray type="Float64" Name="Points" NumberOfComponents="3" format="ascii" RangeMin="0" RangeMax="1.4142135624">
          0 0 0 0 0.125 0
          0 0.25 0 0 0.375 0
          0 0.5 0 0 0.625 0
          0 0.75 0 0 0.875 0
          0 1 0 0.125 0 0
          0.125 0.125 0 0.125 0.25 0
          0.125 0.375 0 0.125 0.5 0
          0.125 0.625 0 0.125 0.75 0
          0.125 0.875 0 0.125 1 0
          0.25 0 0 0.25 0.125 0
          0.25 0.25 0 0.25 0.375 0
          0.25 0.5 0 0.25 0.625 0
          0.25 0.75 0 0.25 0.875 0
          0.25 1 0 0.375 0 0
          0.375 0.125 0 0.375 0.25 0
          0.375 0.375 0 0.375 0.5 0
          0.375 0.625 0 0.375 0.75 0
          0.375 0.875 0 0.375 1 0
          0.5 0 0 0.5 0.125 0
          0.5 0.25 0 0.5 0.375 0
          0.5 0.5 0 0.5 0.625 0
          0.5 0.75 0 0.5 0.875 0
          0.5 1 0 0.625 0 0
          0.625 0.125 0 0.625 0.25 0
          0.625 0.375 0 0.625 0.5 0
          0.625 0.625 0 0.625 0.75 0
          0.625 0.875 0 0.625 1 0
          0.75 0 0 0.75 0.125 0
          0.75 0.25 0 0.75 0.375 0
          0.75 0.5 0 0.75 0.625 0
          0.75 0.75 0 0.75 0.875 0
          0.75 1 0 0.875 0 0
          0.875 0.125 0 0.875 0.25 0
          0.875 0.375 0 0.875 0.5 0
          0.875 0.625 0 0.875 0.75 0
          0.875 0.875 0 0.875 1 0
          1 0 0 1 0.125 0
          1 0.25 0 1 0.375 0
          1 0.5 0 1 0.625 0
          1 0.75 0 1 0.875 0
          1 1 0
        </DataArray>
      </Points>
      <Cells>
        <DataArray type="Int64" Name="connectivity" format="ascii" RangeMin="0" RangeMax="80">
          0 9 10 1 1 10
          11 2 2 11 12 3
          3 12 13 4 4 13
          14 5 5 14 15 6
          6 15 16 7 7 16
          17 8 9 18 19 10
          10 19 20 11 11 20
          21 12 12 21 22 13
          13 22 23 14 14 23
          24 15 15 24 25 16
          16 25 26 17 18 27
          28 19 19 28 29 20
          20 29 30 21 21 30
          31 22 22 31 32 23
          23 32 33 24 24 33
          34 25 25 34 35 26
          27 36 37 28 28 37
          38 29 29 38 39 30
          30 39 40 31 31 40
          41 32 32 41 42 33
          33 42 43 34 34 43
          44 35 36 45 46 37
          37 46 47 38 38 47
          48 39 39 48 49 40
          40 49 50 41 41 50
          51 42 42 51 52 43
          43 52 53 44 45 54
          55 46 46 55 56 47
          47 56 57 48 48 57
          58 49 49 58 59 50
          50 59 60 51 51 60
          61 52 52 61 62 53
          54 63 64 55 55 64
          65 56 56 65 66 57
          57 66 67 58 58 67
          68 59 59 68 69 60
          60 69 70 61 61 70
          71 62 63 72 73 64
          64 73 74 65 65 74
          75 66 66 75 76 67
          67 76 77 68 68 77
          78 69 69 78 79 70
          70 79 80 71
        </DataArray>
        <DataArray type="Int64" Name="offsets" format="ascii" RangeMin="4" RangeMax="256">
          4 8 12 16 20 24
          28 32 36 40 44 48
          52 56 60 64 68 72
          76 80 84 88 92 96
          100 104 108 112 116 120
          124 128 132 136 140 144
          148 152 156 160 164 168
          172 176 180 184 188 192
          196 200 204 208 212 216
          220 224 228 232 236 240
          244 248 252 256
        </DataArray>
        <DataArray type="UInt8" Name="types" format="ascii" RangeMin="9" RangeMax="9">
          9 9 9 9 9 9
          9 9 9 9 9 9
          9 9 9 9 9 9
          9 9 9 9 9 9
          9 9 9 9 9 9
          9 9 9 9 9 9
          9 9 9 9 9 9
          9 9 9 9 9 9
          9 9 9 9 9 9
          9 9 9 9 9 9
          9 9 9 9
        </DataArray>
      </Cells>
    </Piece>
  </UnstructuredGrid>
</VTKFile>
