<?xml version="1.0"?>
<VTKFile type="UnstructuredGrid" version="0.1" byte_order="LittleEndian" header_type="UInt32" compressor="vtkZLibDataCompressor">
  <UnstructuredGrid>
    <Piece NumberOfPoints="81" NumberOfCells="64">
      <PointData>
        <DataArray type="Float64" Name="Mode Shape" NumberOfComponents="3" format="ascii" RangeMin="0" RangeMax="0.01719058028">
          0 0 0.014856805563 0 0 0.0012869034606
          0 0 -0.0012508383402 0 0 0.00052239424664
          0 0 -0.00037457295736 0 0 -0.00020943059501
          0 0 0.00031573576029 0 0 -0.0008580151062
          0 0 0 0 0 0.0023093581956
          0 0 0.015871671712 0 0 -0.013345216821
          0 0 0.0067400109082 0 0 0.0002382336359
          0 0 -0.0076514139154 0 0 0.013728701024
          0 0 -0.0163492168 0 0 0
          0 0 -0.0023360411091 0 0 -0.016779088886
          0 0 0.013753647011 0 0 -0.0073106399676
          0 0 -0.00054090668607 0 0 0.0079048822438
          0 0 -0.014658259373 0 0 0.017190580279
          0 0 0 0 0 0.001702209441
          0 0 0.015896939513 0 0 -0.013485444296
          0 0 0.006784433165 0 0 0.00033998733362
          0 0 -0.0078841533036 0 0 0.014095406074
          0 0 -0.016698389873 0 0 0
          0 0 -0.0018430390112 0 0 -0.015946597177
          0 0 0.013030741607 0 0 -0.0069343335146
          0 0 -0.0005789289534 0 0 0.007618790811
          0 0 -0.014064546034 0 0 0.01644579225
          0 0 0 0 0 0.001702209441
          0 0 0.015896939513 0 0 -0.013485444296
          0 0 0.006784433165 0 0 0.00033998733363
          0 0 -0.0078841533036 0 0 0.014095406074
          0 0 -0.016698389873 0 0 0
          0 0 -0.0023360411091 0 0 -0.016779088886
          0 0 0.013753647011 0 0 -0.0073106399675
          0 0 -0.00054090668609 0 0 0.0079048822438
          0 0 -0.014658259373 0 0 0.01719058028
          0 0 0 0 0 0.0023093581956
          0 0 0.015871671712 0 0 -0.013345216821
          0 0 0.0067400109082 0 0 0.00023823363593
          0 0 -0.0076514139154 0 0 0.013728701024
          0 0 -0.0163492168 0 0 0
          0 0 0.014856805563 0 0 0.0012869034606
          0 0 -0.0012508383402 0 0 0.00052239424664
          0 0 -0.00037457295736 0 0 -0.00020943059501
          0 0 0.0003157357603 0 0 -0.0008580151062
          0 0 0
        </DataArray>
      </PointData>
      <CellData>
      </CellData>
      <Points>
        <DataArray type="Float64" Name="Points" NumberOfComponents="3" format="ascii" RangeMin="0" RangeMax="2.8284271247">
          0 0 0 0 0.25 0
          0 0.5 0 0 0.75 0
          0 1 0 0 1.25 0
          0 1.5 0 0 1.75 0
          0 2 0 0.25 0 0
          0.25 0.25 0 0.25 0.5 0
          0.25 0.75 0 0.25 1 0
          0.25 1.25 0 0.25 1.5 0
          0.25 1.75 0 0.25 2 0
          0.5 0 0 0.5 0.25 0
          0.5 0.5 0 0.5 0.75 0
          0.5 1 0 0.5 1.25 0
          0.5 1.5 0 0.5 1.75 0
          0.5 2 0 0.75 0 0
          0.75 0.25 0 0.75 0.5 0
          0.75 0.75 0 0.75 1 0
          0.75 1.25 0 0.75 1.5 0
          0.75 1.75 0 0.75 2 0
          1 0 0 1 0.25 0
          1 0.5 0 1 0.75 0
          1 1 0 1 1.25 0
          1 1.5 0 1 1.75 0
          1 2 0 1.25 0 0
          1.25 0.25 0 1.25 0.5 0
          1.25 0.75 0 1.25 1 0
          1.25 1.25 0 1.25 1.5 0
          1.25 1.75 0 1.25 2 0
          1.5 0 0 1.5 0.25 0
          1.5 0.5 0 1.5 0.75 0
          1.5 1 0 1.5 1.25 0
          1.5 1.5 0 1.5 1.75 0
          1.5 2 0 1.75 0 0
          1.75 0.25 0 1.75 0.5 0
          1.75 0.75 0 1.75 1 0
          1.75 1.25 0 1.75 1.5 0
          1.75 1.75 0 1.75 2 0
          2 0 0 2 0.25 0
          2 0.5 0 2 0.75 0
          2 1 0 2 1.25 0
          2 1.5 0 2 1.75 0
          2 2 0
        </DataArray>
      </Points>
      <Cells>
        <DataArray type="Int64" Name="connectivity" format="ascii" RangeMin="0" RangeMax="80">
          0 9 10 1 1 10
          11 2 2 11 12 3
          3 12 13 4 4 13
          14 5 5 14 15 6
          6 15 16 7 7 16
          17 8 9 18 19 10
          10 19 20 11 11 20
          21 12 12 21 22 13
          13 22 23 14 14 23
          24 15 15 24 25 16
          16 25 26 17 18 27
          28 19 19 28 29 20
          20 29 30 21 21 30
          31 22 22 31 32 23
          23 32 33 24 24 33
          34 25 25 34 35 26
          27 36 37 28 28 37
          38 29 29 38 39 30
          30 39 40 31 31 40
          41 32 32 41 42 33
          33 42 43 34 34 43
          44 35 36 45 46 37
          37 46 47 38 38 47
          48 39 39 48 49 40
          40 49 50 41 41 50
          51 42 42 51 52 43
          43 52 53 44 45 54
          55 46 46 55 56 47
          47 56 57 48 48 57
          58 49 49 58 59 50
          50 59 60 51 51 60
          61 52 52 61 62 53
          54 63 64 55 55 64
          65 56 56 65 66 57
          57 66 67 58 58 67
          68 59 59 68 69 60
          60 69 70 61 61 70
          71 62 63 72 73 64
          64 73 74 65 65 74
          75 66 66 75 76 67
          67 76 77 68 68 77
          78 69 69 78 79 70
          70 79 80 71
        </DataArray>
        <DataArray type="Int64" Name="offsets" format="ascii" RangeMin="4" RangeMax="256">
          4 8 12 16 20 24
          28 32 36 40 44 48
          52 56 60 64 68 72
          76 80 84 88 92 96
          100 104 108 112 116 120
          124 128 132 136 140 144
          148 152 156 160 164 168
          172 176 180 184 188 192
          196 200 204 208 212 216
          220 224 228 232 236 240
          244 248 252 256
        </DataArray>
        <DataArray type="UInt8" Name="types" format="ascii" RangeMin="9" RangeMax="9">
          9 9 9 9 9 9
          9 9 9 9 9 9
          9 9 9 9 9 9
          9 9 9 9 9 9
          9 9 9 9 9 9
          9 9 9 9 9 9
          9 9 9 9 9 9
          9 9 9 9 9 9
          9 9 9 9 9 9
          9 9 9 9 9 9
          9 9 9 9
        </DataArray>
      </Cells>
    </Piece>
  </UnstructuredGrid>
</VTKFile>
