<?xml version="1.0"?>
<VTKFile type="UnstructuredGrid" version="0.1" byte_order="LittleEndian" header_type="UInt32" compressor="vtkZLibDataCompressor">
  <UnstructuredGrid>
    <Piece NumberOfPoints="81" NumberOfCells="64">
      <PointData>
        <DataArray type="Float64" Name="theta" format="ascii" RangeMin="0" RangeMax="0.1882141578">
          0 0 0 0 0 0
          0 0 0 0 5.5009900355e-06 2.2499408033e-05
          5.1014242786e-05 9.1078089275e-05 0.00014273558471 0.00020603359089 0.00028100038331 0.00036760577695
          0 4.5459983302e-05 0.00018283197606 0.00041214938914 0.00073347830488 0.001146916675
          0.0016525785126 0.0022505572965 0.0029408462156 0 0.00015434698461 0.00061885570911
          0.0013935645413 0.0024785726482 0.0038740439161 0.0055801957049 0.0075972561387 0.0099253559776
          0 0.00036665484136 0.0014684771832 0.0033054964115 0.005877838416 0.0091857403263
          0.013229558782 0.018009755621 0.023526769725 0 0.00071690685759 0.0028696712556
          0.0064582981822 0.011482923854 0.01794384141 0.025841556706 0.035176844036 0.045950722119
          0 0.0012396552706 0.0049604875725 0.011162470463 0.019845720967 0.031010532727
          0.04465747352 0.060787634547 0.079402847821 0 0.0019694643277 0.0078790317655
          0.017728662705 0.031518426359 0.049248506141 0.070919332673 0.096531809492 0.12608878149
          0 0.0029408462156 0.011763384862 0.02646761594 0.04705353945 0.07352115539
          0.10587046376 0.14410146456 0.1882141578
        </DataArray>
        <DataArray type="Float64" Name="theta_x" format="ascii" RangeMin="-0.0014704231078" RangeMax="0.56317205029">
          0 -2.4901993523e-05 -9.5658597613e-05 -0.00021210893233 -0.00037399544172 -0.00058097979369
          -0.00083273127016 -0.001129095052 -0.0014704231078 0 0.00015328879515 0.00061713279506
          0.0013916696259 0.0024771638398 0.0038740020784 0.0055826251838 0.0076033787356 0.0099361866505
          0 0.00055988868829 0.0022434850612 0.0050508716296 0.0089823181594 0.014038300925
          0.020219492571 0.027526656126 0.035960382104 0 0.0012504509015 0.0050053584723
          0.01126471015 0.020028753089 0.031298058978 0.045073607038 0.061356868682 0.080149527146
          0 0.0022156413604 0.0088650107334 0.019947972187 0.035464686866 0.055415702049
          0.079802233815 0.10862647816 0.14189200731 0 0.0034576168713 0.013830674615
          0.031118933237 0.055322364292 0.086441248541 0.1244765421 0.1694310751 0.2213101455
          0 0.004974671148 0.019895274032 0.044761598021 0.079573369004 0.12433016354
          0.17903178522 0.2436791969 0.3182816188 0 0.006776195284 0.027097217509
          0.06096314337 0.10837350185 0.16932704159 0.24382157752 0.33185263807 0.4334180417
          0 0.0088062673872 0.035214134192 0.07922419705 0.14083581135 0.2200475121
          0.3168544374 0.43124753523 0.56317205029
        </DataArray>
        <DataArray type="Float64" Name="theta_y" format="ascii" RangeMin="-8.2907853108e-06" RangeMax="0.3764283156">
          0 0 0 0 0 0
          0 0 0 -1.9566264621e-06 8.9985069691e-05 0.00018202726536
          0.0002742754262 0.00036683797721 0.00045977965212 0.00055306016185 0.00064633293196 0.00073925220022
          -3.9320319121e-06 0.00073130779641 0.0014667084874 0.002202502266 0.0029389604391 0.0036762882483
          0.0044145167182 0.005153111329 0.0058913818036 -5.8510213406e-06 0.0024754050337 0.0049568035105
          0.0074387357181 0.009921724231 0.012406258889 0.014892660249 0.017380570743 0.019869044025
          -7.4634874886e-06 0.0058739066951 0.011755293179 0.017637264477 0.023520679412 0.029406464324
          0.035295586351 0.041188506986 0.047084121909 -8.2907853108e-06 0.01147871153 0.022965501786
          0.034452800143 0.045941780492 0.057433900198 0.068931069583 0.080435766332 0.09194762564
          -7.6666208949e-06 0.019842007482 0.039691224046 0.059540734382 0.079391838278 0.099246228432
          0.11910687284 0.13897979277 0.15886634816 -4.8948801605e-06 0.031516188068 0.063036782969
          0.094557462198 0.12607907083 0.15760310275 0.18913131468 0.2206747164 0.25224274921
          -5.5511151231e-18 0.04705353945 0.094107078899 0.14116061835 0.1882141578 0.23526769725
          0.2823212367 0.32937477615 0.3764283156
        </DataArray>
      </PointData>
      <CellData>
      </CellData>
      <Points>
        <DataArray type="Float64" Name="Points" NumberOfComponents="3" format="ascii" RangeMin="0" RangeMax="1.4142135624">
          0 0 0 0 0.125 0
          0 0.25 0 0 0.375 0
          0 0.5 0 0 0.625 0
          0 0.75 0 0 0.875 0
          0 1 0 0.125 0 0
          0.125 0.125 0 0.125 0.25 0
          0.125 0.375 0 0.125 0.5 0
          0.125 0.625 0 0.125 0.75 0
          0.125 0.875 0 0.125 1 0
          0.25 0 0 0.25 0.125 0
          0.25 0.25 0 0.25 0.375 0
          0.25 0.5 0 0.25 0.625 0
          0.25 0.75 0 0.25 0.875 0
          0.25 1 0 0.375 0 0
          0.375 0.125 0 0.375 0.25 0
          0.375 0.375 0 0.375 0.5 0
          0.375 0.625 0 0.375 0.75 0
          0.375 0.875 0 0.375 1 0
          0.5 0 0 0.5 0.125 0
          0.5 0.25 0 0.5 0.375 0
          0.5 0.5 0 0.5 0.625 0
          0.5 0.75 0 0.5 0.875 0
          0.5 1 0 0.625 0 0
          0.625 0.125 0 0.625 0.25 0
          0.625 0.375 0 0.625 0.5 0
          0.625 0.625 0 0.625 0.75 0
          0.625 0.875 0 0.625 1 0
          0.75 0 0 0.75 0.125 0
          0.75 0.25 0 0.75 0.375 0
          0.75 0.5 0 0.75 0.625 0
          0.75 0.75 0 0.75 0.875 0
          0.75 1 0 0.875 0 0
          0.875 0.125 0 0.875 0.25 0
          0.875 0.375 0 0.875 0.5 0
          0.875 0.625 0 0.875 0.75 0
          0.875 0.875 0 0.875 1 0
          1 0 0 1 0.125 0
          1 0.25 0 1 0.375 0
          1 0.5 0 1 0.625 0
          1 0.75 0 1 0.875 0
          1 1 0
        </DataArray>
      </Points>
      <Cells>
        <DataArray type="Int64" Name="connectivity" format="ascii" RangeMin="0" RangeMax="80">
          0 9 10 1 1 10
          11 2 2 11 12 3
          3 12 13 4 4 13
          14 5 5 14 15 6
          6 15 16 7 7 16
          17 8 9 18 19 10
          10 19 20 11 11 20
          21 12 12 21 22 13
          13 22 23 14 14 23
          24 15 15 24 25 16
          16 25 26 17 18 27
          28 19 19 28 29 20
          20 29 30 21 21 30
          31 22 22 31 32 23
          23 32 33 24 24 33
          34 25 25 34 35 26
          27 36 37 28 28 37
          38 29 29 38 39 30
          30 39 40 31 31 40
          41 32 32 41 42 33
          33 42 43 34 34 43
          44 35 36 45 46 37
          37 46 47 38 38 47
          48 39 39 48 49 40
          40 49 50 41 41 50
          51 42 42 51 52 43
          43 52 53 44 45 54
          55 46 46 55 56 47
          47 56 57 48 48 57
          58 49 49 58 59 50
          50 59 60 51 51 60
          61 52 52 61 62 53
          54 63 64 55 55 64
          65 56 56 65 66 57
          57 66 67 58 58 67
          68 59 59 68 69 60
          60 69 70 61 61 70
          71 62 63 72 73 64
          64 73 74 65 65 74
          75 66 66 75 76 67
          67 76 77 68 68 77
          78 69 69 78 79 70
          70 79 80 71
        </DataArray>
        <DataArray type="Int64" Name="offsets" format="ascii" RangeMin="4" RangeMax="256">
          4 8 12 16 20 24
          28 32 36 40 44 48
          52 56 60 64 68 72
          76 80 84 88 92 96
          100 104 108 112 116 120
          124 128 132 136 140 144
          148 152 156 160 164 168
          172 176 180 184 188 192
          196 200 204 208 212 216
          220 224 228 232 236 240
          244 248 252 256
        </DataArray>
        <DataArray type="UInt8" Name="types" format="ascii" RangeMin="9" RangeMax="9">
          9 9 9 9 9 9
          9 9 9 9 9 9
          9 9 9 9 9 9
          9 9 9 9 9 9
          9 9 9 9 9 9
          9 9 9 9 9 9
          9 9 9 9 9 9
          9 9 9 9 9 9
          9 9 9 9 9 9
          9 9 9 9 9 9
          9 9 9 9
        </DataArray>
      </Cells>
    </Piece>
  </UnstructuredGrid>
</VTKFile>
