<?xml version="1.0"?>
<VTKFile type="UnstructuredGrid" version="0.1" byte_order="LittleEndian" header_type="UInt32" compressor="vtkZLibDataCompressor">
  <UnstructuredGrid>
    <Piece NumberOfPoints="60" NumberOfCells="24">
      <PointData>
        <DataArray type="Float64" Name="Continuous global L2-projection p-rec" format="ascii" RangeMin="-21.47816406625386" RangeMax="-1.8699796165898217">
          -17.436299808484275 -11.930403689259366 -6.424507570034444 -17.678710362491408 -11.38224783930722 -5.085785316123046
          -17.537324972644964 -11.940329629635098 -6.343334286625196 -17.15348660189263 -13.046734738984172 -8.939982876075732
          -16.74070446742027 -11.703602737398178 -6.666501007376133 -16.345086640068295 -11.463034511457236 -6.580982382846169
          -15.595562600213475 -10.774053923396094 -5.95254524657874 -15.241431470690525 -10.32543481212245 -5.4094381535544
          -15.380282186467584 -10.065982194219139 -4.751682201970659 -15.24955990157268 -11.01183165622255 -6.774103410872443
          -15.446097185713036 -11.267211716117405 -7.088326246521763 -15.773415731616254 -10.576818948404778 -5.380222165193352
          -13.878356870615518 -8.184385724966347 -2.490414579317193 -15.130333670285106 -10.061877079708683 -4.993420489132241
          -17.733820592192806 -12.94742280660813 -8.16102502102354 -19.086111968252062 -13.95634307273482 -8.826574177217566
          -12.976485040154087 -7.423232328371942 -1.8699796165898217 -15.288884169370474 -9.38984620073461 -3.490808232098728
          -19.539085982576474 -13.774418379770836 -8.009750776965152 -21.47816406625386 -16.19369240796397 -10.909220749674084
        </DataArray>
        <DataArray type="Float64" Name="Continuous global L2-projection sigma_xx" format="ascii" RangeMin="1.8699796165898204" RangeMax="21.478164066253868">
          17.436299808484275 11.930403689259345 6.424507570034442 17.67871036249142 11.382247839307237 5.085785316123044
          17.537324972644964 11.940329629635087 6.343334286625199 17.153486601892617 13.04673473898417 8.939982876075721
          16.74070446742023 11.70360273739822 6.6665010073761115 16.023229783722165 10.83952185596062 5.655813928199114
          15.24456956298964 10.189380578307155 5.134191593624629 15.241431470690538 10.325434812122456 5.409438153554404
          15.380282186467616 10.065982194219123 4.7516822019706755 14.385253868915042 9.783294692759737 5.181335516604396
          14.579958340030874 10.057432811202563 5.5349072823741885 15.773415731616254 10.576818948404785 5.380222165193333
          13.8783568706155 8.184385724966358 2.4904145793171897 14.495927744415166 9.256513275606729 4.017098806798289
          17.327454303530864 12.05092448412127 6.774394664711741 19.08611196825207 13.956343072734807 8.826574177217584
          12.976485040154087 7.423232328371948 1.8699796165898204 15.288884169370483 9.389846200734604 3.4908082320987353
          19.539085982576456 13.774418379770841 8.009750776965145 21.478164066253868 16.19369240796397 10.909220749674077
        </DataArray>
        <DataArray type="Float64" Name="Continuous global L2-projection sigma_xy" format="ascii" RangeMin="-4.445816268501699" RangeMax="4.333262287736564">
          1.3434613825915838e-17 -1.543033938256911e-17 -1.6910553649458557e-16 -1.0034577637359332e-16 2.88836078671177e-16 -2.3486583681391093e-16
          1.6537348915046846e-17 1.178461136997575e-16 2.576035342027784e-16 -8.268674457523431e-18 -5.892305684987876e-17 -9.059578843389987e-16
          1.343329864500502e-16 -0.7565483522177682 -2.291541349721996 1.0514252305868562e-16 -0.3879329823619908 -1.0290925106744553
          -3.816371415476325e-17 0.3782174284047388 1.1455987893362078 -1.9988368384628854e-16 0.7759823755737083 2.0584938312183034
          -9.99200722162641e-16 -1.7775384103669665 -4.445816268501699 6.891511232498943e-17 -0.8810904127699907 -2.1663061115216187
          1.5008523123872487e-16 0.8886358743480895 2.222574659377038 -1.2212453270876722e-15 1.762445222970209 4.333262287736564
          6.806805995543725e-16 -1.317651063090452 -2.790332937346421 -2.7446731948141905e-16 -0.4762725666843891 -1.6683333824397732
          0 0.6587266962593176 1.39495716944266 8.721973944869531e-16 0.9526880531428349 3.33716739801854
          -7.660699425487913e-16 1.084145109674163e-15 -1.0590597272826104e-15 2.3687968970156645e-16 -2.439036433313876e-16 -6.531916053092057e-17
          -3.191679451612915e-16 3.4915485396575983e-17 -5.439778116381252e-16 -3.6777196411630357e-16 6.486760720768058e-16 -9.215008456529807e-16
        </DataArray>
        <DataArray type="Float64" Name="Continuous global L2-projection sigma_xz" format="ascii" RangeMin="-2.9314414837918976" RangeMax="5.268772596488103">
          1.0002807766537636 1.0002807766537651 1.000280776653764 1.0002807766537651 -0.21826399001930946 -2.9314414837918976
          1.0002807766537658 -0.22699221084104115 -2.639178007296534 1.0002807766537642 1.0002807766537647 1.000280776653765
          0.9999202748617924 0.9999202748617894 0.9999202748617919 0.9999202748617899 -0.34862304086374934 -2.312491624438085
          0.9999202748617904 -0.3892196822261395 -2.2008618069951837 0.9999202748617912 0.9999202748617906 0.9999202748617918
          0.9998859658116768 0.9998859658116785 0.9998859658116763 0.9998859658116785 0.6853828590557745 0.6052703469432898
          0.9998859658116774 0.849243309608091 0.272220762447186 0.9998859658116779 0.9998859658116764 0.9998859658116793
          1.000062610824646 1.0000626108246442 1.0000626108246475 1.0000626108246446 2.0627242627005185 3.6102665690931106
          1.0000626108246473 2.0947147026572432 3.522301484976663 1.000062610824646 1.0000626108246466 1.000062610824647
          1.00008266771796 1.0000826677179593 1.0000826677179608 1.0000826677179604 2.6010845114547663 4.662651229764911
          1.0000826677179586 2.2099119897277606 5.268772596488103 1.00008266771796 1.0000826677179593 1.0000826677179602
        </DataArray>
        <DataArray type="Float64" Name="Continuous global L2-projection sigma_yx" format="ascii" RangeMin="-0.07070819102227689" RangeMax="0.13682315498590478">
          3.0031140452145488e-18 -2.228753103571153e-17 3.374451868386934e-17 -2.426697077586311e-19 3.0879540961111105e-17 -4.6763489004768245e-17
          7.695803675951146e-18 -1.9120534992640026e-17 1.5111390558699375e-17 -1.1248946748334114e-17 1.0187118272839954e-17 -8.721768529932236e-18
          -1.349326872824175e-18 3.628190035816088e-17 -5.142434637540984e-17 -0.02224352024495602 0.006965808570384935 0.036175137385726044
          -0.009974798187613503 0.014841105788946183 0.03965700976550577 2.4187508008424305e-17 -1.828981445247752e-17 1.4319649902837533e-17
          -1.3558511176039554e-18 -3.8448461863991693e-17 5.493126195500438e-17 0.09616374969482423 0.10675427317619325 0.11734479665756224
          0.08888428471982479 0.00908804684877393 -0.07070819102227689 -4.007989456421394e-17 1.46472715427398e-17 1.2944366949642286e-18
          5.2600053154270465e-17 2.2427506107903916e-17 -3.54098212412363e-17 0.12431880831718435 0.06071683764457699 -0.0028851330280303556
          0.13682315498590478 0.03776951134204866 -0.06128413230180742 -2.890805758242742e-17 -2.1474557061231805e-17 8.577287550180843e-18
          -3.5896950907923813e-17 -9.311002503416173e-18 1.7244637315266002e-17 6.952752230754478e-17 1.0018901021462453e-17 -2.7675697900272808e-17
          -5.1726760052740555e-17 5.345525911920868e-18 -1.007426037246625e-17 2.5271889656506395e-17 -6.947256478586333e-18 9.073569260900415e-18
        </DataArray>
        <DataArray type="Float64" Name="Continuous global L2-projection sigma_yy" format="ascii" RangeMin="1.8699796165898213" RangeMax="21.478164066253896">
          17.436299808484286 11.930403689259364 6.42450757003445 17.67871036249141 11.382247839307215 5.085785316123046
          17.537324972644956 11.940329629635112 6.343334286625187 17.153486601892638 13.046734738984162 8.939982876075732
          16.74070446742023 11.674604976371006 6.6821314839919275 16.345086640068313 11.464742555950549 6.612419977643225
          15.595562600213475 10.788550628825494 5.944731180692482 15.241431470690529 10.322018210586181 5.346553530173302
          15.38028218646763 10.26789805222036 5.253238826481675 15.249559901572642 11.056667473267296 6.731874724837338
          15.446097185713029 11.166268932561668 6.837585555373833 15.773415731616247 10.487133859992575 5.464692209238967
          13.878356870615493 8.369610288942129 2.7365584815885384 15.13033367028513 10.155506048686133 5.047638883079271
          17.733820592192814 12.854824418072992 8.037971532820587 19.086111968252055 13.769057038618074 8.718121119479012
          12.976485040154095 7.423232328371939 1.8699796165898213 15.288884169370462 9.389846200734622 3.4908082320987224
          19.539085982576452 13.774418379770836 8.009750776965165 21.478164066253896 16.193692407963955 10.90922074967408
        </DataArray>
        <DataArray type="Float64" Name="Continuous global L2-projection sigma_yz" format="ascii" RangeMin="-0.2912934098074415" RangeMax="0.3439163383834161">
          8.117286541519386e-18 3.180901859459454e-17 5.348442974177501e-17 7.467559553624514e-18 -0.13097357185180628 -0.1095305057378228
          3.9649972567277034e-18 -0.04424691753374314 0.13991574111905053 3.19542394823157e-18 -1.0355845153190845e-17 5.177922576595422e-18
          2.4387833849562698e-17 -6.556729100538163e-17 -3.918045438126464e-17 -6.133313845089994e-17 0.14985856059181457 0.3439163383834161
          9.540928538690813e-18 0.07323304957717355 -0.013819131162356375 -1.4802614616301692e-18 2.2636937326356547e-17 -5.762508669069173e-17
          1.9432486614583966e-17 1.7644927211326513e-17 4.2504411058950586e-17 -2.584316712187104e-17 0.14403616290042642 0.12970765242015025
          -3.752130780968122e-17 0.13273987930022682 0.0586317240731235 3.6183180304174045e-17 -8.831531551621536e-17 4.53529483310829e-17
          8.043761573841709e-18 -5.863006061983168e-17 1.4843413523193105e-16 -2.9407212801580615e-17 -0.11808960356646646 -0.27100850227936063
          5.0805022820953504e-17 -0.05770816000353491 0.01088957290228272 -4.8317753387771595e-17 1.164581748320648e-16 -1.8977248704775117e-16
          -2.275512242735174e-17 7.401486830834378e-17 -7.864079757761526e-17 5.476210339324644e-17 -0.258983523113229 -0.23901127114280196
          0 -0.2912934098074415 -0.23841588335550865 -9.466207755520603e-18 -6.433431133584553e-17 7.380051909136614e-17
        </DataArray>
        <DataArray type="Float64" Name="Continuous global L2-projection sigma_zx" format="ascii" RangeMin="-0.14790948852896682" RangeMax="0.13587735220789898">
          -1.3380393359343823e-18 1.8052348534281078e-17 -3.032814347389812e-17 1.924380082517513e-17 -3.8015118807592347e-17 4.773371000949688e-17
          2.745844168851156e-18 2.0765312196307983e-17 -5.540843204856438e-17 -1.2324819314690064e-17 -1.0247475088384072e-17 2.2527690147333166e-17
          1.999002774554386e-19 -3.3983047167423415e-17 6.856579516721312e-17 -0.08522364124655728 0.025326855480671005 0.13587735220789898
          -0.09437195863574739 -0.0020881015807390478 0.0901957554742695 8.637589046047123e-19 1.3186771738691355e-17 -4.4947772452568144e-17
          1.7133327752894994e-17 1.7181034304047167e-17 -3.65248001713251e-17 -0.12505303323268888 -0.029599003493785896 0.06585502624511727
          0.01878980547189712 0.012320786714553849 0.005851767957210475 -8.53000548003202e-18 -1.1884467465893001e-17 3.173962912673167e-17
          1.0078765968514318e-17 -2.4411785684243458e-17 4.198566907262553e-17 -0.029688712209463133 -0.0399585664272308 -0.05022842064499863
          0.10755212232470511 -0.020178683102130893 -0.14790948852896682 2.8082113080072356e-17 3.303778009420275e-18 -3.430915020072337e-17
          -3.227925453775358e-19 1.4553631047337865e-17 -1.805412557602293e-17 -1.4513395727711142e-18 -1.7189712068454912e-17 3.1594722476014184e-17
          7.056126566182603e-18 -1.2335829027509701e-17 -6.04455622347975e-17 -1.4321398393107696e-17 -1.1120556130064565e-18 2.6097927774517113e-17
        </DataArray>
        <DataArray type="Float64" Name="Continuous global L2-projection sigma_zy" format="ascii" RangeMin="-0.2337613433763855" RangeMax="0.12408418124249464">
          1.1447669887716393e-17 -1.912017805524979e-17 1.1808173852505509e-17 8.703529355599776e-18 -1.8018488247658302e-17 2.5329756185789607e-17
          -9.29575197724826e-19 1.9485896558490956e-18 -2.585918222296581e-18 4.0941668704987906e-17 -7.498916313626831e-17 2.4422605457505716e-17
          -1.6791623306256276e-17 -0.07794190020126712 0.12408418124249464 -8.761876921557135e-18 -0.06181861397010754 -0.020203862926167465
          -1.9081857077381626e-17 0.038965103780461 -0.062032783228817535 -6.662789461542951e-17 0.12365577845720765 0.040413788623375003
          4.1633363423443376e-17 -0.2337613433763855 -0.15687049525711608 -4.7379139723430235e-17 0.047923114894032386 0.047323312881479174
          3.752130780968122e-17 0.11686313755502652 0.07842348097752011 2.7755575615628914e-17 -0.0958606105465463 -0.0946608265329751
          -8.508507494429657e-18 -0.11845753525017502 -0.16760374299096392 9.802404267193537e-18 0.0878961798692418 -0.024455584138386683
          -3.0021149848745254e-17 0.05921988228002743 0.08378929975754479 1.982266805652166e-17 -0.17581873560609884 0.0489185069034423
          2.074340547745138e-17 -1.0141920789246858e-17 4.7918551949443256e-17 -2.0670129243181078e-17 2.0283841578493716e-17 1.3074107558146845e-18
          1.8102267168549964e-17 -1.668068069811551e-17 3.5090249652887925e-17 -2.06159567574537e-17 4.534777450322965e-17 -2.910994799962269e-17
        </DataArray>
        <DataArray type="Float64" Name="Continuous global L2-projection sigma_zz" format="ascii" RangeMin="1.8699796165898186" RangeMax="21.47816406625389">
          17.43629980848428 11.930403689259363 6.424507570034444 17.67871036249142 11.234212689601836 5.364129763840945
          17.53732497264496 11.637656164185323 6.29136946846984 17.153486601892624 13.046734738984178 8.939982876075725
          16.74070446742025 11.7036027373982 6.666501007376128 16.345086640068295 11.325581117421818 6.47825267802452
          15.595562600213485 10.80932120841973 6.019047697969669 15.24143147069052 10.325434812122467 5.409438153554395
          15.380282186467637 10.065982194219108 4.751682201970663 15.249559901572649 11.034078190648424 6.610081036986146
          15.44609718571303 11.430096468712538 7.040921688610186 15.773415731616243 10.576818948404782 5.380222165193356
          13.878356870615484 8.184385724966358 2.490414579317195 15.130333670285115 10.170191324463241 5.074372221679105
          17.733820592192806 12.91963193706517 8.108620619900652 19.08611196825205 13.956343072734828 8.826574177217552
          12.976485040154088 7.4232323283719515 1.8699796165898186 15.288884169370487 9.437810312862787 3.6968060616846903
          19.53908598257644 13.58792281011062 8.160419770168291 21.47816406625389 16.193692407963955 10.909220749674109
        </DataArray>
        <DataArray type="Float64" Name="Continuous global L2-projection u_x,x" format="ascii" RangeMin="-1.592767894268036" RangeMax="9.972570545820553e-16">
          2.8507182651715976e-16 -1.3450626934419138e-16 1.0161443125328793e-16 -6.732987587019442e-16 4.198115987923741e-16 -1.676060900960559e-16
          2.1441672911220187e-16 2.6316435258687292e-17 -1.6118816595945996e-16 8.245387360346699e-17 -1.3182794027546445e-16 2.1878620875902543e-16
          -4.461774192805239e-16 2.2068990631079676e-16 -2.3508272628758786e-16 -0.32185685634612937 -0.623512655496598 -0.9251684546470639
          -0.35099303722381575 -0.5846733450889593 -0.818353652954101 -3.9193746747150233e-16 4.2909888129074793e-16 -5.387974232516175e-16
          4.611343130509128e-16 -1.4284115210784577e-16 -3.8789150222513557e-16 -0.8643060326576235 -1.2285369634628291 -1.592767894268036
          -0.8661388456821437 -1.2097789049148553 -1.5534189641475693 8.57854675467295e-18 -3.149226527533082e-16 4.523210367810349e-16
          4.186785449608386e-16 -2.24744550322742e-16 9.972570545820553e-16 -0.6344059258699419 -0.8053638041019434 -0.9763216823339478
          -0.40636628866195645 -0.8964983224868791 -1.386630356311796 5.286044815072417e-17 8.457671704115912e-16 -1.097892806423148e-15
          8.345047950422707e-17 -1.0811248967347886e-16 -2.007149143924507e-16 -6.769449425636325e-17 3.4888908117522383e-16 4.49413720612725e-16
          -2.4032906227240907e-16 2.927703422528968e-16 -8.8653491277703e-16 5.567799300070236e-17 -2.988670989025614e-16 5.301112325987051e-16
        </DataArray>
        <DataArray type="Float64" Name="Continuous global L2-projection u_x,y" format="ascii" RangeMin="-4.445816268501699" RangeMax="4.333262287736564">
          1.3434613825915838e-17 -1.543033938256911e-17 -1.6910553649458557e-16 -1.0034577637359332e-16 2.88836078671177e-16 -2.3486583681391093e-16
          1.6537348915046846e-17 1.178461136997575e-16 2.576035342027784e-16 -8.268674457523431e-18 -5.892305684987876e-17 -9.059578843389987e-16
          1.343329864500502e-16 -0.7565483522177682 -2.291541349721996 1.0514252305868562e-16 -0.3879329823619908 -1.0290925106744553
          -3.816371415476325e-17 0.3782174284047388 1.1455987893362078 -1.9988368384628854e-16 0.7759823755737083 2.0584938312183034
          -9.99200722162641e-16 -1.7775384103669665 -4.445816268501699 6.891511232498943e-17 -0.8810904127699907 -2.1663061115216187
          1.5008523123872487e-16 0.8886358743480895 2.222574659377038 -1.2212453270876722e-15 1.762445222970209 4.333262287736564
          6.806805995543725e-16 -1.317651063090452 -2.790332937346421 -2.7446731948141905e-16 -0.4762725666843891 -1.6683333824397732
          0 0.6587266962593176 1.39495716944266 8.721973944869531e-16 0.9526880531428349 3.33716739801854
          -7.660699425487913e-16 1.084145109674163e-15 -1.0590597272826104e-15 2.3687968970156645e-16 -2.439036433313876e-16 -6.531916053092057e-17
          -3.191679451612915e-16 3.4915485396575983e-17 -5.439778116381252e-16 -3.6777196411630357e-16 6.486760720768058e-16 -9.215008456529807e-16
        </DataArray>
        <DataArray type="Float64" Name="Continuous global L2-projection u_x,z" format="ascii" RangeMin="-2.9314414837918976" RangeMax="5.268772596488103">
          1.0002807766537636 1.0002807766537651 1.000280776653764 1.0002807766537651 -0.21826399001930946 -2.9314414837918976
          1.0002807766537658 -0.22699221084104115 -2.639178007296534 1.0002807766537642 1.0002807766537647 1.000280776653765
          0.9999202748617924 0.9999202748617894 0.9999202748617919 0.9999202748617899 -0.34862304086374934 -2.312491624438085
          0.9999202748617904 -0.3892196822261395 -2.2008618069951837 0.9999202748617912 0.9999202748617906 0.9999202748617918
          0.9998859658116768 0.9998859658116785 0.9998859658116763 0.9998859658116785 0.6853828590557745 0.6052703469432898
          0.9998859658116774 0.849243309608091 0.272220762447186 0.9998859658116779 0.9998859658116764 0.9998859658116793
          1.000062610824646 1.0000626108246442 1.0000626108246475 1.0000626108246446 2.0627242627005185 3.6102665690931106
          1.0000626108246473 2.0947147026572432 3.522301484976663 1.000062610824646 1.0000626108246466 1.000062610824647
          1.00008266771796 1.0000826677179593 1.0000826677179608 1.0000826677179604 2.6010845114547663 4.662651229764911
          1.0000826677179586 2.2099119897277606 5.268772596488103 1.00008266771796 1.0000826677179593 1.0000826677179602
        </DataArray>
        <DataArray type="Float64" Name="Continuous global L2-projection u_y,x" format="ascii" RangeMin="-0.07070819102227689" RangeMax="0.13682315498590478">
          3.0031140452145488e-18 -2.228753103571153e-17 3.374451868386934e-17 -2.426697077586311e-19 3.0879540961111105e-17 -4.6763489004768245e-17
          7.695803675951146e-18 -1.9120534992640026e-17 1.5111390558699375e-17 -1.1248946748334114e-17 1.0187118272839954e-17 -8.721768529932236e-18
          -1.349326872824175e-18 3.628190035816088e-17 -5.142434637540984e-17 -0.02224352024495602 0.006965808570384935 0.036175137385726044
          -0.009974798187613503 0.014841105788946183 0.03965700976550577 2.4187508008424305e-17 -1.828981445247752e-17 1.4319649902837533e-17
          -1.3558511176039554e-18 -3.8448461863991693e-17 5.493126195500438e-17 0.09616374969482423 0.10675427317619325 0.11734479665756224
          0.08888428471982479 0.00908804684877393 -0.07070819102227689 -4.007989456421394e-17 1.46472715427398e-17 1.2944366949642286e-18
          5.2600053154270465e-17 2.2427506107903916e-17 -3.54098212412363e-17 0.12431880831718435 0.06071683764457699 -0.0028851330280303556
          0.13682315498590478 0.03776951134204866 -0.06128413230180742 -2.890805758242742e-17 -2.1474557061231805e-17 8.577287550180843e-18
          -3.5896950907923813e-17 -9.311002503416173e-18 1.7244637315266002e-17 6.952752230754478e-17 1.0018901021462453e-17 -2.7675697900272808e-17
          -5.1726760052740555e-17 5.345525911920868e-18 -1.007426037246625e-17 2.5271889656506395e-17 -6.947256478586333e-18 9.073569260900415e-18
        </DataArray>
        <DataArray type="Float64" Name="Continuous global L2-projection u_y,y" format="ascii" RangeMin="-0.2507406911479286" RangeMax="0.5015566245109945">
          -1.8449256413482478e-17 1.5482503698664053e-18 4.7563547613573936e-17 1.400030575026298e-17 -2.0725913676730863e-17 -9.984555815669342e-18
          -1.5082749747214383e-17 2.588749946300335e-17 -4.177289458665731e-18 1.2203444215294858e-17 -1.641319668345529e-17 1.683379427513572e-17
          3.568219952579459e-17 -0.02899776102720104 0.015630476615816593 -2.5738013457074086e-17 0.0017080444933247874 0.03143759479704984
          2.1467089212054328e-17 0.014496705429405515 -0.007814065886264657 -1.7958299720564986e-17 -0.0034166015362904712 -0.06288462338109407
          -4.1633363423443376e-17 0.20191585800125386 0.5015566245109945 3.0150361642182874e-17 0.04483581704471832 -0.04222868603509671
          -4.6901634762101525e-17 -0.100942783555741 -0.2507406911479286 6.938893903907228e-18 -0.08968508841221337 0.08447004404563181
          1.0210208993315589e-16 0.18522456397575807 0.2461439022713547 -5.881442560316123e-17 0.09362896897747637 0.05421839394702042
          1.8474553753074e-17 -0.09259838853516579 -0.1230534882029351 3.964533611304332e-17 -0.18728603411674682 -0.10845305773856877
          -5.670467050668584e-17 7.94920499487998e-17 -1.4395128751448922e-16 3.014261416648492e-17 -4.796179743508391e-17 6.585797010394711e-17
          1.008471893088998e-17 -3.361015099349703e-17 -1.3852523619854068e-17 -4.436275825425262e-17 1.0932366088217823e-16 -3.9333030882787836e-17
        </DataArray>
        <DataArray type="Float64" Name="Continuous global L2-projection u_y,z" format="ascii" RangeMin="-0.2912934098074415" RangeMax="0.3439163383834161">
          8.117286541519386e-18 3.180901859459454e-17 5.348442974177501e-17 7.467559553624514e-18 -0.13097357185180628 -0.1095305057378228
          3.9649972567277034e-18 -0.04424691753374314 0.13991574111905053 3.19542394823157e-18 -1.0355845153190845e-17 5.177922576595422e-18
          2.4387833849562698e-17 -6.556729100538163e-17 -3.918045438126464e-17 -6.133313845089994e-17 0.14985856059181457 0.3439163383834161
          9.540928538690813e-18 0.07323304957717355 -0.013819131162356375 -1.4802614616301692e-18 2.2636937326356547e-17 -5.762508669069173e-17
          1.9432486614583966e-17 1.7644927211326513e-17 4.2504411058950586e-17 -2.584316712187104e-17 0.14403616290042642 0.12970765242015025
          -3.752130780968122e-17 0.13273987930022682 0.0586317240731235 3.6183180304174045e-17 -8.831531551621536e-17 4.53529483310829e-17
          8.043761573841709e-18 -5.863006061983168e-17 1.4843413523193105e-16 -2.9407212801580615e-17 -0.11808960356646646 -0.27100850227936063
          5.0805022820953504e-17 -0.05770816000353491 0.01088957290228272 -4.8317753387771595e-17 1.164581748320648e-16 -1.8977248704775117e-16
          -2.275512242735174e-17 7.401486830834378e-17 -7.864079757761526e-17 5.476210339324644e-17 -0.258983523113229 -0.23901127114280196
          0 -0.2912934098074415 -0.23841588335550865 -9.466207755520603e-18 -6.433431133584553e-17 7.380051909136614e-17
        </DataArray>
        <DataArray type="Float64" Name="Continuous global L2-projection u_z,x" format="ascii" RangeMin="-0.14790948852896682" RangeMax="0.13587735220789898">
          -1.3380393359343823e-18 1.8052348534281078e-17 -3.032814347389812e-17 1.924380082517513e-17 -3.8015118807592347e-17 4.773371000949688e-17
          2.745844168851156e-18 2.0765312196307983e-17 -5.540843204856438e-17 -1.2324819314690064e-17 -1.0247475088384072e-17 2.2527690147333166e-17
          1.999002774554386e-19 -3.3983047167423415e-17 6.856579516721312e-17 -0.08522364124655728 0.025326855480671005 0.13587735220789898
          -0.09437195863574739 -0.0020881015807390478 0.0901957554742695 8.637589046047123e-19 1.3186771738691355e-17 -4.4947772452568144e-17
          1.7133327752894994e-17 1.7181034304047167e-17 -3.65248001713251e-17 -0.12505303323268888 -0.029599003493785896 0.06585502624511727
          0.01878980547189712 0.012320786714553849 0.005851767957210475 -8.53000548003202e-18 -1.1884467465893001e-17 3.173962912673167e-17
          1.0078765968514318e-17 -2.4411785684243458e-17 4.198566907262553e-17 -0.029688712209463133 -0.0399585664272308 -0.05022842064499863
          0.10755212232470511 -0.020178683102130893 -0.14790948852896682 2.8082113080072356e-17 3.303778009420275e-18 -3.430915020072337e-17
          -3.227925453775358e-19 1.4553631047337865e-17 -1.805412557602293e-17 -1.4513395727711142e-18 -1.7189712068454912e-17 3.1594722476014184e-17
          7.056126566182603e-18 -1.2335829027509701e-17 -6.04455622347975e-17 -1.4321398393107696e-17 -1.1120556130064565e-18 2.6097927774517113e-17
        </DataArray>
        <DataArray type="Float64" Name="Continuous global L2-projection u_z,y" format="ascii" RangeMin="-0.2337613433763855" RangeMax="0.12408418124249464">
          1.1447669887716393e-17 -1.912017805524979e-17 1.1808173852505509e-17 8.703529355599776e-18 -1.8018488247658302e-17 2.5329756185789607e-17
          -9.29575197724826e-19 1.9485896558490956e-18 -2.585918222296581e-18 4.0941668704987906e-17 -7.498916313626831e-17 2.4422605457505716e-17
          -1.6791623306256276e-17 -0.07794190020126712 0.12408418124249464 -8.761876921557135e-18 -0.06181861397010754 -0.020203862926167465
          -1.9081857077381626e-17 0.038965103780461 -0.062032783228817535 -6.662789461542951e-17 0.12365577845720765 0.040413788623375003
          4.1633363423443376e-17 -0.2337613433763855 -0.15687049525711608 -4.7379139723430235e-17 0.047923114894032386 0.047323312881479174
          3.752130780968122e-17 0.11686313755502652 0.07842348097752011 2.7755575615628914e-17 -0.0958606105465463 -0.0946608265329751
          -8.508507494429657e-18 -0.11845753525017502 -0.16760374299096392 9.802404267193537e-18 0.0878961798692418 -0.024455584138386683
          -3.0021149848745254e-17 0.05921988228002743 0.08378929975754479 1.982266805652166e-17 -0.17581873560609884 0.0489185069034423
          2.074340547745138e-17 -1.0141920789246858e-17 4.7918551949443256e-17 -2.0670129243181078e-17 2.0283841578493716e-17 1.3074107558146845e-18
          1.8102267168549964e-17 -1.668068069811551e-17 3.5090249652887925e-17 -2.06159567574537e-17 4.534777450322965e-17 -2.910994799962269e-17
        </DataArray>
        <DataArray type="Float64" Name="Continuous global L2-projection u_z,z" format="ascii" RangeMin="-0.3026734654497605" RangeMax="0.2783444477178954">
          7.287149661946323e-18 6.371405448724442e-17 -4.101451627993296e-18 4.978373035749676e-18 -0.14803514970538048 0.2783444477178954
          -6.343995610764324e-17 -0.3026734654497605 -0.051964818155364946 3.9048752006146404e-17 -1.465754790464957e-17 -3.083514251916497e-17
          4.0379856045997246e-17 -9.755133539825073e-17 3.918045438126464e-17 -7.009501537245708e-17 -0.13745339403541446 -0.10272970482164678
          4.7704642693454067e-17 0.035267285023638933 0.066502451390919 -2.969494786113164e-17 5.0449193697956543e-17 1.444338233602652e-17
          -2.7088463932639575e-17 2.934410466456115e-17 -2.0612197026951197e-17 4.5225542463274314e-17 0.022246534425862868 -0.1640223738863091
          -8.442294257178274e-17 0.16288475259512963 -0.04740455791156486 5.816803642417075e-17 -6.095681604244842e-17 2.1132913276561316e-17
          3.461479880193528e-17 -6.07210901094409e-17 -1.2181992417427825e-17 -4.901202133596768e-17 0.10831424475455732 0.08095173254687614
          5.5423661259222e-17 -0.02779086954298835 -0.05240440112288651 -3.283129396861401e-17 3.3450752345380317e-17 1.2865931325271264e-17
          9.653877813962815e-18 -2.775557561562892e-17 2.7755575615628914e-17 4.978373035749677e-18 0.04796411212819688 0.20599782958595483
          -1.585998902691081e-17 -0.18649556966022235 0.15066899320314187 7.455022725570827e-18 -1.2927844232045298e-17 6.4639221160226505e-18
        </DataArray>
        <DataArray type="Float64" Name="_z" format="ascii" RangeMin="-0.04661751165986061" RangeMax="0.032487593591213226">
          0 0 0 0 0 0
          0 0 0 0 0 0
          0 0 0 0 -0.024186737835407257 0.02532685548067093
          0 -0.031805336475372314 -0.0020881015807390213 0 0 0
          0 0 0 0 -0.04661751165986061 -0.029599003493785858
          0 0.008316732943058014 0.012320786714553833 0 0 0
          0 0 0 0 -0.016555998474359512 -0.039958566427230835
          0 0.032487593591213226 -0.02017868310213089 0 0 0
          0 0 0 0 0 0
          0 0 0 0 0 0
        </DataArray>