<?xml version="1.0"?>
<VTKFile type="UnstructuredGrid" version="0.1" byte_order="LittleEndian" header_type="UInt32" compressor="vtkZLibDataCompressor">
  <UnstructuredGrid>
    <Piece NumberOfPoints="1089" NumberOfCells="1024">
      <PointData>
        <DataArray type="Float64" Name="P1" format="ascii" RangeMin="-8396449.948640777" RangeMax="54374960.42024204">
          2487827.230094075 -3272063.0374922603 -4278002.041416609 -3548789.574589446 -4103225.429921248 -5467253.660861969
          -7166818.320861565 -6149411.190366676 637475.9501760509 10176014.687018901 19448376.60641416 27533973.703673974
          33512217.974110488 37896175.52390039 41198912.459220365 43567714.25038601 45149866.36771292 46059796.37398034
          46411931.8319675 46251881.81421337 45625255.39325693 44530322.66669122 42965353.73210929 40897582.074420616
          38294241.17853466 35087358.891086295 31208963.058710396 26699567.682469003 21599686.76342416 15736126.250089994
          8935692.090980617 3224763.0074946964 629717.7210308873 2532742.2958588833 -3331136.648146074 -4355236.80888907
          -3612859.1893742247 -4177304.79260566 -5565959.097971979 -7296207.584861786 -6260432.253324151 648984.8965918553
          10359731.777233338 19799496.300947398 28031070.229133956 34117245.32319293 38580350.550485276 41942714.87837193
          44354282.85924818 45964999.045509316 46891356.867523015 47249849.755657 47086910.20560577 46448970.71306379
          45334270.14408302 43741047.36471549 41635944.295392014 38985602.856543414 35720823.73007634 31772407.597897407
          27181599.89813922 21989646.068934407 16020225.224933868 9097016.480788507 3282982.6642277194 641086.6029809054
          2576253.0554206935 -3388363.2678360194 -4430056.759518496 -3674925.6060442305 -4249067.993830722 -5661578.418758077
          -7421551.376706403 -6367982.142445863 660134.0092533802 10537704.796923127 20139637.939095173 28512624.608121656
          34703355.9763547 39243134.261237375 42663261.68021273 45116258.72925632 46754645.90434372 47696917.91231994
          48061569.460030034 47895830.72129549 47246931.86993781 46113081.516946144 44492488.27330963 42351220.99074883
          39655348.520984285 36334482.74955163 32318235.56198647 27648560.96449103 22367412.963267565 16295441.602263331
          9253296.92542557 3339382.0334078274 652100.0268636436 2618128.789241876 -3443439.4558804845 -4502065.165925865
          -3734659.724798164 -4318134.516401277 -5753604.607650919 -7542185.0654628035 -6471490.578481875 670864.1646469212
          10708990.035578538 20466997.90596792 28976083.379246354 35267442.0588451 39881012.2199736 43356732.13784129
          45849601.45450656 47514619.8120278 48472207.990770936 48842786.77110185 48674354.030223586 48014907.64533915
          46862627.109285496 45215691.91489959 43039619.37967754 40299926.82111551 36925082.00036592 32843552.678581238
          28097974.803820066 22730984.324140996 16560316.037657717 9403704.742483893 3393662.0555906915 662699.5939492808
          2658134.9781987905 -3496056.765301092 -4570858.754296997 -3791727.0120449625 -4384117.5618010275 -5841522.283702596
          -7657433.057887073 -6570377.875867363 681115.2708436238 10872628.23474694 20779742.86834364 29418851.006948862
          35806344.48587775 40490412.080773056 44019242.56727751 46550204.05192179 48240664.64123653 49212885.199445784
          49589126.59077359 49418120.12164362 48748597.09847957 47578709.19594812 45906608.08871595 43697284.183331594
          40915727.886343606 37489313.91401824 33345416.982621852 28527324.53673641 23078324.020943962 16813365.138824902
          9547397.593959624 3445518.7430532724 672825.942810977 2696035.8913837695 -3545905.1535825413 -4636032.164583091
          -3845791.202973167 -4446628.33010805 -5924813.400006816 -7766616.266688536 -6664061.350983006 690826.9262799721
          11027655.177894445 21076030.016654458 29838318.539532915 36316887.84350273 41067743.032337554 44646889.20981105
          47213938.30942667 48928502.264687926 49914585.19155193 50296191.20597581 50122746.44780365 49443677.056879535
          48257108.353595346 46561165.658342995 44320340.19475727 41499123.18647293 38023853.82499824 33820871.3018414
          28934080.273914754 23407385.39813063 17053097.845670756 9683528.787716853 3494646.536714095 682419.4051076496
          2731597.4512484255 -3592676.755462732 -4697182.8837833125 -3896518.3956737295 -4505280.753094395 -6002963.548129325
          -7869060.37286254 -6751962.411734359 699939.1508148916 11173113.412143525 21354029.469609853 30231895.32895578
          36795918.99592321 41609439.45616702 45235795.69534208 47836704.97846325 49573884.57054536 50572974.24076486
          50959613.75829818 50783881.20929119 50095854.67988975 48893634.76287256 47175322.051018275 44904939.39605394
          42046509.649706624 38525400.394295424 34266979.21213947 29315729.87635996 23716136.16007808 17278033.55989714
          9811257.57242044 3540742.021571284 691420.7312729828 2764590.330968363 -3636069.954466726 -4753916.568838881
          -3943581.465760886 -4559696.598845522 -6075468.760721624 -7964104.744018025 -6833514.209691279 708393.1813020649
          11308064.916901315 21611948.485045787 30597043.30679739 37240348.80321805 42112008.10139922 45782164.32843235
          48414488.00868375 50172649.666519746 51183806.57794791 51575116.01897576 51397260.930710696 50700924.25426008
          49484183.640913695 47745116.7419613 45447311.86862842 42554357.33214056 38990719.28683528 34680863.88705015
          29669812.19143225 24002585.258628633 17486721.73342806 9929760.260619273 3583507.94073123 699771.8742928837
          2794793.2227581064 -3675793.6800351203 -4805852.664581476 -3986664.7260447284 -4609510.859588644 -6141842.6911283685
          -8051111.846579047 -6908169.715998585 716132.3105551192 11431604.472296754 21848057.008441005 30931313.15402033
          37647196.144067176 42572077.86621866 46282330.20811191 48943411.77934219 50720781.1895048 51742984.89600109
          52138569.35623245 51958771.217715494 51254827.12796685 50024793.736796476 48266727.69401436 45943819.516537875
          43019259.72128445 39416689.26236575 35059749.09389352 29993952.12538472 24264811.266356327 17677762.539230797
          10038241.966430575 3622657.4312120504 707416.8168316173 2821996.2041958594 -3711571.835796657 -4852630.19354333
          -4025468.7298025857 -4654377.305332844 -6201624.012843873 -8129476.945045433 -6975410.043825906 723102.7489263322
          11542873.428271877 22060713.989271313 31232381.558655348 38013633.26315467 42986451.07762475 46732816.97692112
          49419800.05382188 51214469.401105165 52246622.67674813 52646057.53872791 52464509.34393234 51753713.44924928
          50511707.58898576 48736529.497448824 46391011.40827529 43437985.555102035 39800349.655049734 35401001.425239146
          30285896.772837505 24500991.60501204 17849828.16534366 10135948.697413266 3657918.3878773274 714302.4233923224
          2846004.118987981 -3743147.7465506713 -4893913.570157947 -4059715.0941355024 -4693974.060784995 -6254383.850154387
          -8198637.842291647 -7034752.806020647 729254.4898347391 11641073.532709377 22248393.81003813 31498088.632968526
          38337031.31264808 43352154.99063717 47130392.808496155 49840235.18640913 51650172.54456024 52691106.78447772
          53093939.807689816 52910847.10563803 52194004.169763885 50941432.04055024 49151151.758479975 46785679.35528807
          43807530.862709545 40138948.05614757 35702172.71100532 30543551.70078169 24709431.898975544 18001684.199971616
          10222179.498154627 3689037.846029333 720379.2961004857 2866639.8798312135 -3770288.5020039557 -4929398.279895469
          -4089151.2109629395 -4728009.052325977 -6299733.035904112 -8258084.393616874 -7085760.278460576 734542.1565684666
          11725480.441395456 22409712.105945587 31726474.467301343 38615004.8425452 43666492.09862041 47472125.102470204
          50201615.96190568 52024676.78473788 53073158.61389762 53478912.49231572 53294492.22464721 52572451.615547106
          51310797.35649065 49507536.13895305 47124912.20651539 44125169.802758686 40429986.8950017 35961041.450563185
          30765016.39410727 24888594.650298093 18132210.522190284 10296298.312838478 3715786.2623174093 725602.6107018065
          2883747.59581176 -3792789.069799501 -4958816.256805329 -4113554.70790004 -4756225.165777948 -6337328.983841361
          -8307367.51549259 -7128047.129847469 738925.8039781642 11795456.510122847 22543450.212725114 31915813.741764843
          38845453.9272219 43927087.7706071 47755432.273431204 50501212.362227455 52335152.9635291 53389891.98931746
          53798067.35157379 53612546.48889457 52886196.83987633 51617013.20020093 49802990.365550235 47406147.25829816
          44388502.800818644 40671267.54521617 36175652.04359531 30948617.81795074 25037126.390277173 18240421.08275949
          10357745.217582589 3737961.568222795 729932.9081564354 2897195.4260031446 -3810476.048820807 -4981940.79064651
          -4132737.518918721 -4778404.953082194 -6366881.959981871 -8346107.4064627 -7161287.4756125035 742371.6494808955
          11850462.46694465 22648577.474905923 32064647.309267495 39026602.60593217 44131933.72051323 47978131.00862399
          50736715.54130797 52579208.38960868 53638865.998181075 54048944.8116801 53862558.80634565 53132821.95841761
          51857719.712673455 50035237.51389063 47627217.16662559 44595500.47543474 40860930.57222437 36344350.58890072
          31092941.04393782 25153882.455809683 18325481.954606034 10406046.670416605 3755392.8692079233 733336.8169465256
          2906878.065232062 -3823210.938712891 -4998590.801485007 -4146549.43027131 -4794374.732258828 -6388160.54558397
          -8374000.708383143 -7185221.022582837 744852.709890462 11890067.580019057 22724270.678785253 32171809.707806814
          39157032.36870152 44279425.87358729 48138477.43458206 50906281.35870569 52754931.95297802 53818131.01484594
          54229580.34175633 54042571.420746036 53310395.73885187 52031032.00806023 50202458.94035749 47786390.812817566
          44744541.90251437 40997490.79330679 36465816.06905375 31196855.928975306 25237948.572291557 18386727.0567559
          10440824.44012177 3767943.667069245 735787.6822784209 2912718.776819523 -3830892.813239113 -5008634.335016287
          -4154880.9800672024 -4804007.939947061 -6400996.104087773 -8390826.361921245 -7199658.09319663 746349.3223369251
          11913957.971818974 22769929.942389067 32236451.656536594 39235709.536750905 44368395.32862203 48235200.777739964
          51008565.975569434 52860931.013575144 53926266.332616664 54338542.37355362 54151157.70056816 53417510.8778425
          52135576.55604447 50303329.385841906 47882406.717838556 44834445.90263815 41079865.94479261 36539085.84885386
          31259538.929407652 25288658.501039743 18423671.011070173 10461802.906818978 3775514.4945686795 737266.0806017922
          2914670.8999687564 -3833460.302671711 -5011991.154500452 -4157665.6084553814 -4807227.617474413 -6405286.093541545
          -8396449.948640777 -7204483.351154316 746849.5305356279 11921942.784405 22785190.49842975 32258056.73738136
          39262005.566031314 44398131.31750943 48267528.324945554 51042752.25028127 52896358.75545818 53962408.069202915
          54374960.42024204 54187450.1608242 53453311.643197976 52170518.16062927 50337043.006384015 47914497.8201671
          44864494.24168345 41107397.939780995 36563574.583307706 31280489.27696742 25305607.12546398 18436018.67595597
          10468814.475601938 3778044.8691001465 737760.2011488389 2912718.776815001 -3830892.8132426883 -5008634.3350195065
          -4154880.980070315 -4804007.939949966 -6400996.104090217 -8390826.36192282 -7199658.093197337 746349.3223366741
          11913957.971818965 22769929.94238929 32236451.656536885 39235709.536750965 44368395.328622006 48235200.77774052
          51008565.97557033 52860931.01357528 53926266.33261581 54338542.37355236 54151157.7005671 53417510.87784219
          52135576.55604466 50303329.38584165 47882406.717837825 44834445.902637936 41079865.94479306 36539085.84885431
          31259538.929408055 25288658.50104067 18423671.011071607 10461802.90682031 3775514.494569244 737266.0806008683
          2906878.0652274066 -3823210.938716287 -4998590.80148849 -4146549.430275357 -4794374.732263038 -6388160.5455877725
          -8374000.708385793 -7185221.022584234 744852.7098897736 11890067.580018738 22724270.678785156 32171809.70780676
          39157032.36870125 44279425.87358703 48138477.4345825 50906281.358706556 52754931.95297807 53818131.01484491
          54229580.34175488 54042571.42074485 53310395.73885167 52031032.00806074 50202458.940357484 47786390.812816985
          44744541.902514316 40997490.79330743 36465816.069054306 31196855.928975727 25237948.57229245 18386727.056757163
          10440824.44012255 3767943.6670693676 735787.6822783697 2897195.4260044084 -3810476.0488188174 -4981940.790646056
          -4132737.518920473 -4778404.953085235 -6366881.959985272 -8346107.406465506 -7161287.475614395 742371.6494796162
          11850462.466943644 22648577.474904798 32064647.309266236 39026602.6059311 44131933.72051248 47978131.00862343
          50736715.541307546 52579208.389608376 53638865.99818089 54048944.811680056 53862558.80634585 53132821.95841823
          51857719.7126744 50035237.51389156 47627217.16662636 44595500.47543536 40860930.57222481 36344350.5889009
          31092941.043937694 25153882.45580919 18325481.954604913 10406046.670414345 3755392.869206304 733336.8169496093
          2883747.595815956 -3792789.0697944677 -4958816.256802163 -4113554.707899607 -4756225.165779275 -6337328.983843467
          -8307367.515494486 -7128047.129848822 738925.8039770349 11795456.510121603 22543450.212723393 31915813.74176285
          38845453.927220404 43927087.7706061 47755432.27343003 50501212.362226166 52335152.96352851 53389891.98931781
          53798067.35157482 53612546.48889593 52886196.83987751 51617013.20020193 49802990.36555157 47406147.258299686
          44388502.800819516 40671267.54521625 36175652.04359502 30948617.81795009 25037126.390275694 18240421.08275698
          10357745.217579098 3737961.5682206335 729932.9081601609 2866639.8798284032 -3770288.502004214 -4929398.2798953215
          -4089151.2109634 -4728009.052326932 -6299733.035905083 -8258084.393617022 -7085760.27846 734542.156568727
          11725480.44139499 22409712.10594461 31726474.46730017 38615004.84254424 43666492.09861981 47472125.102469854
          50201615.96190539 52024676.78473741 53073158.6138972 53478912.492315985 53294492.2246481 52572451.615547895
          51310797.356491074 49507536.138953395 47124912.206515715 44125169.80275889 40429986.89500172 35961041.45056296
          30765016.39410687 24888594.65029767 18132210.52219014 10296298.312839024 3715786.2623179024 725602.6107003599
          2846004.118979589 -3743147.7465558774 -4893913.570161034 -4059715.09413727 -4693974.060785969 -6254383.850154595
          -8198637.842290614 -7034752.806018877 729254.4898357632 11641073.532709336 22248393.810037874 31498088.63296831
          38337031.31264759 43352154.99063663 47130392.808496356 49840235.18640986 51650172.5445602 52691106.78447684
          53093939.80768921 52910847.10563811 52194004.16976428 50941432.04055056 49151151.758479826 46785679.355287716
          43807530.86270989 40138948.05614867 35702172.711006366 30543551.700782675 24709431.898977336 18001684.199974876
          10222179.498159854 3689037.84603306 720379.2960952974 2821996.2041934934 -3711571.8357983036 -4852630.193544497
          -4025468.7298033694 -4654377.305333207 -6201624.012843796 -8129476.945044923 -6975410.043825404 723102.748925937
          11542873.428270672 22060713.98927037 31232381.558654755 38013633.263153546 42986451.07762321 46732816.97692024
          49419800.05382194 51214469.40110561 52246622.676748596 52646057.53872826 52464509.343932785 51753713.44925035
          50511707.5889874 48736529.49745042 46391011.40827703 43437985.55510478 39800349.65505346 35401001.42524286
          30285896.772841025 24500991.60501597 17849828.16534847 10135948.697419308 3657918.387882206 714302.4233908941
          2794793.2227618974 -3675793.680032213 -4805852.664580057 -3986664.7260446767 -4609510.859589115 -6141842.691128937
          -8051111.846579711 -6908169.715999673 716132.310552941 11431604.472293781 21848057.00843849 30931313.154018488
          37647196.14406517 42572077.86621643 46282330.20811016 48943411.779341504 50720781.18950554 51742984.89600294
          52138569.356234334 51958771.21771727 51254827.12796926 50024793.73679981 48266727.69401837 45943819.51654254
          43019259.721289866 39416689.26237173 35059749.09389955 29993952.12539058 24264811.266362112 17677762.53923669
          10038241.966436898 3622657.431217472 707416.8168331614 2764590.3309675697 -3636069.9544660724 -4753916.568839056
          -3943581.46576258 -4559696.598847845 -6075468.76072375 -7964104.744019198 -6833514.209692118 708393.1812995673
          11308064.91689709 21611948.48504168 30597043.306794286 37240348.80321583 42112008.101397805 45782164.32843167
          48414488.008683786 50172649.66652047 51183806.5779494 51575116.01897825 51397260.93071405 50700924.25426383
          49484183.64091789 47745116.74196654 45447311.8686346 42554357.332146876 38990719.28684154 34680863.88705673
          29669812.191439286 24002585.2586361 17486721.73343629 9929760.260629002 3583507.9407385527 699771.8742892736
          2731597.451243492 -3592676.7554657394 -4697182.883786408 -3896518.395677476 -4505280.753097908 -6002963.548131776
          -7869060.372863154 -6751962.411734352 699939.1508123251 11173113.412138171 21354029.469604492 30231895.328951914
          36795918.99592107 41609439.45616644 45235795.69534252 47836704.97846411 49573884.57054601 50572974.24076572
          50959613.75830069 50783881.209295385 50095854.679894224 48893634.76287709 47175322.05102388 44904939.39606056
          42046509.64971313 38525400.39430179 34266979.21214671 29315729.876368415 23716136.160087414 17278033.55990801
          9811257.572434483 3540742.021581941 691420.7312654806 2696035.8913855264 -3545905.1535845674 -4636032.164586755
          -3845791.202976698 -4446628.330110056 -5924813.400007011 -7766616.266687748 -6664061.35098304 690826.9262763348
          11027655.177887673 21076030.016648274 29838318.5395289 36316887.843500316 41067743.03233632 44646889.2098107
          47213938.30942699 48928502.2646887 49914585.191553354 50296191.205978416 50122746.447807424 49443677.05688388
          48257108.353600204 46561165.65834886 44320340.194764115 41499123.18648022 38023853.8250062 33820871.301851116
          28934080.273926068 23407385.39814223 17053097.845683422 9683528.787733495 3494646.536728837 682419.4051058351
          2658134.97820573 -3496056.765300808 -4570858.754298925 -3791727.0120464466 -4384117.561801199 -5841522.283701533
          -7657433.057885809 -6570377.875867669 681115.270839245 10872628.234739278 20779742.868336793 29418851.006944295
          35806344.48587431 40490412.08077028 44019242.56727564 46550204.05192111 48240664.641237386 49212885.19944799
          49589126.59077643 49418120.121646956 48748597.09848384 47578709.19595342 45906608.08872212 43697284.18333864
          40915727.886351705 37489313.91402789 33345416.982633773 28527324.536750045 23078324.02095743 16813365.138839092
          9547397.593978204 3445518.743071025 672825.942813805 2618128.7892418657 -3443439.455880092 -4502065.165924851
          -3734659.724797121 -4318134.516401612 -5753604.607652277 -7542185.065463067 -6471490.578481921 670864.1646432214
          10708990.035571069 20466997.905960333 28976083.379240226 35267442.05883998 39881012.219969474 43356732.13783861
          45849601.45450555 47514619.81202845 48472207.990773015 48842786.77110493 48674354.03022754 48014907.645344116
          46862627.10929143 45215691.91490623 43039619.37968495 40299926.82112398 36925082.00037588 32843552.6785932
          28097974.803833723 22730984.32415524 16560316.037673656 9403704.74250484 3393662.055609058 662699.5939465481
          2576253.0554172876 -3388363.2678337973 -4430056.759515021 -3674925.6060423013 -4249067.99383156 -5661578.41876064
          -7421551.376707386 -6367982.142445905 660134.0092496955 10537704.796915349 20139637.939087 28512624.60811484
          34703355.97634908 39243134.26123307 42663261.68021019 45116258.72925555 46754645.90434426 47696917.91232162
          48061569.46003296 47895830.72129971 47246931.869943336 46113081.51695288 44492488.273317486 42351220.99075762
          39655348.52099381 36334482.74956199 32318235.561998114 27648560.964504104 22367412.96328186 16295441.602280049
          9253296.925447326 3339382.033425906 652100.0268579995 2532742.295865246 -3331136.648139287 -4355236.808885357
          -3612859.1893738653 -4177304.792605703 -5565959.097971201 -7296207.584860689 -6260432.253324662 648984.8965863767
          10359731.777223773 19799496.30093888 28031070.22912831 34117245.32318869 38580350.55048191 41942714.87836981
          44354282.85924743 45964999.04550976 46891356.867524475 47249849.75565922 47086910.20560903 46448970.713068895
          45334270.14409028 43741047.36472466 41635944.29540261 38985602.85655467 35720823.73008808 31772407.59791001
          27181599.898152724 21989646.06894847 16020225.224949613 9097016.480808493 3282982.6642459203 641086.6029827013
          2487827.2300875187 -3272063.0374946743 -4278002.041416488 -3548789.5745884553 -4103225.4299211074 -5467253.66086232
          -7166818.320859965 -6149411.190364883 637475.9501720862 10176014.687009174 19448376.606404617 27533973.70366695
          33512217.97410474 37896175.52389533 41198912.45921609 43567714.25038279 45149866.367711216 46059796.373980515
          46411931.83196986 46251881.81421753 45625255.393261865 44530322.66669633 42965353.73211445 40897582.074426524
          38294241.17854288 35087358.89109713 31208963.058722854 26699567.682482272 21599686.76343759 15736126.250105252
          8935692.091001697 3224763.0075116465 629717.721019823
        </DataArray>
        <DataArray type="Float64" Name="P2" format="ascii" RangeMin="-248190911.1261508" RangeMax="144759.24161217627">
          -211844193.71045694 -182560218.6356299 -148660193.6773272 -114555518.85609272 -84657594.1924704 -58281333.4282492
          -34741650.30521802 -17243041.732572164 -8990004.619506944 -6389310.653303985 -5847731.521244917 -6115328.127511628
          -5942161.376286004 -5557942.502112916 -5192382.739537233 -4820644.807822698 -4417891.426233054 -3997402.597425498
          -3572458.324057225 -3146843.619659617 -2724343.497764058 -2311068.0850493945 -1913127.508194475 -1530254.4552335106
          -1162181.6142007122 -829734.1796837375 -553737.3462702442 -313772.3415433299 -89420.39308609185 72097.35062785633
          123559.74112490112 -321994.04863189696 -1651524.8456794773 -215668814.66876635 -185856148.657546 -151344094.90711832
          -116623696.55944252 -86185996.75647756 -59333540.738270305 -35368873.744867496 -17554346.459498197 -9152309.565391447
          -6504662.844513227 -5953306.078829511 -6225733.855954063 -6049440.763500647 -5658285.22723116 -5286125.6729075005
          -4907676.409192573 -4497651.744749289 -4069571.4385102293 -3636955.249407977 -3203656.5253542643 -2773528.6142608244
          -2352791.9546232983 -1947666.9849373277 -1557881.567207255 -1183163.5634374216 -844714.1449030807 -563734.4828794843
          -319437.16580686986 -91034.78212547464 73398.99216952139 125790.48108293813 -327807.3072842217 -1681341.3648309552
          -219373855.5813346 -189049028.60920885 -153944081.6703188 -118627210.91834271 -87666612.50695862 -60352849.88634314
          -35976486.5066729 -17855917.976793703 -9309539.90555136 -6616408.446576153 -6055579.753498366 -6332687.65158516
          -6153365.966103696 -5755490.648721288 -5376937.651105246 -4991986.891237599 -4574918.2871003775 -4139483.8577275043
          -3699435.6221529003 -3258693.12613818 -2821175.91544496 -2393211.29139804 -1981126.5553222203 -1584644.8940776438
          -1203489.494524452 -859225.749379294 -573419.0513588195 -324924.87555612915 -92598.69706432363 74659.93563950443
          127951.47407826231 -333438.8100867214 -1710225.6451941177 -222939670.336513 -192121928.1303861 -156446367.44447502
          -120555438.22734125 -89091590.42754623 -61333855.95107125 -36561266.70389761 -18146157.19286837 -9460861.924826624
          -6723954.930695385 -6154010.241397676 -6435622.392872457 -6253385.921058688 -5849043.334916271 -5464337.1434051115
          -5073129.197149099 -4649281.346772121 -4206769.143653557 -3759568.1391727775 -3311661.589391465 -2867032.7503712988
          -2432111.7706254288 -2013328.7986670055 -1610402.5218945707 -1223051.6277066655 -873192.0437330238 -582739.6976033801
          -330206.3704944396 -94103.84358290838 75873.49640051353 130031.26272512569 -338858.6948950314 -1738024.5267459173
          -226346289.08929166 -195057637.87781888 -158836938.52814317 -122397579.71875854 -90452950.12815909 -62271064.94456559
          -37119939.35619892 -18423438.662936285 -9605428.164654903 -6826699.996996717 -6248046.295603672 -6533961.60760492
          -6348940.480129611 -5938419.356717665 -5547834.680909 -5150648.900616538 -4720324.463753201 -4271050.474427454
          -3817016.0367477555 -3362265.272725191 -2910842.304370848 -2469275.5357664535 -2044093.3709937339 -1635010.1988691478
          -1241740.4082091546 -886534.8119070791 -591644.2228562463 -335252.0725574018 -95541.79251129173 77032.87790375135
          132018.19930939478 -344036.60850365413 -1764582.325744688 -229573638.76881835 -197838859.551823 -161101708.78193206
          -124142780.80507946 -91742669.96719909 -63158954.4797874 -37649212.5543409 -18686128.539783504 -9742386.785039162
          -6924038.2309928 -6337133.818529334 -6627125.842760236 -6439466.598796978 -6023092.076064616 -5626938.263988211
          -5224089.2258372465 -4787629.024881208 -4331949.080012753 -3871440.810124533 -3410206.00018194 -2952346.4351503714
          -2504483.604105788 -2073238.9961241516 -1658322.9276453003 -1259445.7151090715 -899175.4337510482 -600080.158806814
          -340032.25109420164 -96904.07143104359 78131.24815349525 133900.57563024995 -348942.04099097155 -1789742.55370036
          -232601787.1382394 -200448416.2199452 -163226690.8976658 -125780263.05755986 -92952784.58578607 -63992040.917351045
          -38145817.48726141 -18932604.441195644 -9870891.924832279 -7015368.468535713 -6420722.60267036 -6714539.712824028
          -6524405.1845845245 -6102538.551235542 -5701159.346060779 -5292996.602672957 -4850779.354684795 -4389088.848323206
          -3922506.329815101 -3455187.6879570438 -2991288.8115455983 -2537518.529178066 -2100585.6694517485 -1680196.7277880823
          -1276058.1996085062 -911035.8401456004 -607995.4046319461 -344517.38337817043 -98182.26669490046 79161.82371815795
          135666.7661612988 -353544.696134622 -1813349.8199387477 -235411206.50497442 -202869479.5725189 -165198181.45348698
          -127299466.80647062 -94075490.29006155 -64764951.91394919 -38606551.687822916 -19161276.913000997 -9990114.890801694
          -7100101.747143444 -6498273.607944694 -6795639.510629799 -6603208.492623114 -6176246.454358133 -5770019.296268351
          -5356926.666787594 -4909368.214349682 -4442101.300920012 -3969883.2884639837 -3496920.26158585 -3027418.304889868
          -2568167.2777906437 -2125957.03970278 -1700490.5410303534 -1291470.7321774387 -922039.5463733246 -615338.9168473
          -348678.5457706977 -99368.13531485094 80117.95894113614 137305.38141815912 -357814.89254593325 -1835251.8876132919
          -237983052.00258917 -205085809.7355855 -167002956.19459572 -128690201.62116085 -95103256.25682187 -65472502.97981792
          -39028324.66838804 -19370612.07833685 -10099255.965468926 -7177669.697425733 -6569266.641848729 -6869881.239294705
          -6675347.930320451 -6243721.371541916 -5833056.219575036 -5415450.591584065 -4963002.604733256 -4490630.843792352
          -4013253.893531101 -3535123.78963632 -3060492.567794831 -2596224.2660018103 -2149182.922252434 -1719068.2417126943
          -1305579.9295485849 -932112.7424537237 -622061.4371217291 -352487.8263330008 -100453.72286793758 80993.2402384965
          138805.42995133772 -361723.98687621055 -1855301.8433909446 -240299448.2524286 -207082002.30711818 -168628471.19734544
          -129942801.32482663 -96028939.091278 -66109776.34480266 -39408204.93350373 -19559154.971573804 -10197556.57320549
          -7247533.189951243 -6633208.273363516 -6936748.888091092 -6740322.098782755 -6304494.32427009 -5889831.983384672
          -5468161.611695664 -5011309.74477223 -4534340.176690929 -4052316.7015283094 -3569532.7419490055 -3090281.7206176454
          -2621494.486303468 -2170101.8877757094 -1735800.7072959933 -1318287.7271259434 -941185.41566384 -628116.241307963
          -355918.74913122837 -101431.48420655179 81781.58392766026 140156.48573300155 -365244.80938408035 -1873360.3320171381
          -242343777.25165093 -208843736.44998905 -170063064.89375302 -131048279.67221983 -96845897.87466638 -66672200.16159912
          -39743467.19352454 -19725552.97188645 -10284311.498128695 -7309191.018795933 -6689639.780432813 -6995762.743499934
          -6797664.868457887 -6358129.322820512 -5939939.274101638 -5514681.574297504 -5053943.075404343 -4572915.725563863
          -4086791.472917768 -3599900.2660920117 -3116572.053712551 -2643796.6482096184 -2188563.8620134476 -1750567.8977841525
          -1329502.9581818474 -949192.4779298963 -633459.8917516631 -358946.7004324348 -102294.40475749958 82477.33440772974