<?xml version="1.0"?>
<VTKFile type="UnstructuredGrid" version="0.1" byte_order="LittleEndian" header_type="UInt32" compressor="vtkZLibDataCompressor">
  <UnstructuredGrid>
    <Piece NumberOfPoints="1089" NumberOfCells="1024">
      <PointData>
        <DataArray type="Float64" Name="P1" format="ascii" RangeMin="-6.873348433380443e-7" RangeMax="5.792561468202398e-7">
          0 0 1.2556156949666403e-10 2.5849394142282115e-26 -7.53369416979984e-10 2.0679515313825692e-25
          4.394654932383241e-9 1.6543612251060553e-24 -2.5614560177319452e-8 1.3234889800848443e-23 1.4929270613153353e-7 2.6235424089603697e-7
          1.792752869722661e-7 -6.617444900424222e-24 -1.755274643809824e-7 -2.6235424089603697e-7 -1.7552746427051985e-7 -6.617444900424222e-24
          1.7927528641995332e-7 2.623542408960369e-7 1.4929270933494755e-7 -1.613002194478404e-23 -2.5614578845491016e-8 -2.5849394142282115e-26
          4.394763737998459e-9 4.8467614016778965e-25 -7.540035824997352e-10 8.885729236409477e-27 1.292577569999546e-10 1.0097419586828951e-27
          -2.1542959499992436e-11 -8.077935669463161e-28 0 3.1737544987949507e-7 3.038673017592444e-7 3.170415682400152e-7
          3.337724762091e-7 3.3093425255379123e-7 3.2002037877598305e-7 3.125243363775697e-7 2.5119367690881e-7 7.877595191996308e-8
          -7.748392212347908e-8 -9.034102875602434e-8 -4.117740496248561e-8 -1.137508772767573e-8 -9.911887682346361e-9 -4.5765615457249145e-8
          -3.5035725425123816e-8 1.0617832804128994e-7 2.5262208158062084e-7 2.790410718314973e-7 2.7837746185721284e-7 3.435734147210603e-7
          3.01715665072912e-7 -2.0109052437360014e-8 -2.5267479532773725e-7 -2.6755621116201393e-8 3.0711184988111563e-7 3.98390997348082e-7
          3.1644871947259887e-7 1.3065191444256739e-7 -1.447880722508278e-10 8.291324159790588e-8 2.365214915496252e-7 3.1737544987949507e-7
          2.690185688864742e-7 2.718902676729768e-7 2.6594030091580015e-7 2.655327231440525e-7 2.850315888868418e-7 2.6845628314346814e-7
          1.598261909132317e-7 -2.957735887470658e-9 -1.819945453422418e-7 -2.695735795655728e-7 -1.5798418067195466e-7 7.245151506201176e-10
          5.450337171415896e-8 2.1071693600007378e-9 -1.577093115705157e-7 -2.705682524797372e-7 -1.8209183477001083e-7 -3.2614006034743465e-9
          1.549417078577342e-7 2.6927976153524215e-7 3.165150313506768e-7 2.723476843674142e-7 1.1247788764883078e-7 3.272607025130057e-9
          1.1109880832651576e-7 2.7120050880881676e-7 3.188217257278624e-7 2.6921558261190913e-7 1.3763520298921404e-7 3.0780513189541123e-11
          -6.764749116275173e-8 1.614257116049328e-10 2.6901856888647414e-7 1.193570970928725e-7 3.134109145148433e-7 1.2302679966306564e-7
          -1.086063184584589e-7 -3.8299510845728935e-8 8.831097141328292e-8 2.558887723060402e-8 -7.773504066140063e-8 -7.293002953036616e-8
          -2.8932294753936028e-8 -1.4678041709753612e-8 1.4341629805490112e-8 1.0263561999510439e-7 1.518409799880557e-7 6.359476091331047e-8
          -5.819045407247933e-8 -1.0960208181266164e-7 -9.450162785443576e-8 -1.6750597745000857e-8 1.0811677181305904e-7 2.6456624411716e-7
          3.3866678550229936e-7 2.1648736230347437e-7 9.512038082741231e-8 1.7165824738084024e-7 2.7532646963662813e-7 2.3535055526764592e-7
          1.3023504119254104e-7 3.848446432996104e-8 1.699519671009126e-9 6.148090220678864e-8 1.2998222399488225e-7 1.193570970928725e-7
          -1.5864112000810168e-9 2.771885935343264e-7 3.1432933898436594e-8 -2.7832384374078647e-7 -1.9155219301637853e-7 2.7909962566160204e-10
          5.701247739335279e-9 1.7256556344141548e-9 1.6536372762066994e-7 2.836429980669009e-7 1.4359100134190544e-7 2.1475468287930744e-11
          1.0774815846865284e-7 2.8131150497379325e-7 3.3525196961450206e-7 2.8451783241763175e-7 1.4405737341003505e-7 2.7331323882665013e-9
          -5.0592350851119034e-8 -2.7757964498622813e-11 1.703182293917507e-7 2.7567100962621144e-7 1.3125598114746622e-7 -2.770312240640438e-9
          1.3374867326573596e-7 2.79477025429048e-7 1.730788320117481e-7 -2.2400490384763037e-9 -6.327375977393776e-8 -1.021213525176541e-10
          1.9719504506790268e-7 2.7967964621086696e-7 -1.5864112000810125e-9 -2.4660310448161513e-8 -2.3908627544049434e-8 6.013249255619722e-8
          1.508357051489982e-7 1.715736655307736e-7 1.397773913047291e-7 7.287790007407072e-8 4.872643935858272e-8 1.4517425667804966e-7
          2.1732679797772926e-7 1.2028950920287929e-7 2.238153526836075e-8 9.192202108903459e-8 2.11244945456699e-7 2.626842871631521e-7
          2.564664291031176e-7 2.0281775417131918e-7 1.5427015625470741e-7 1.633555292402332e-7 1.396227094160945e-7 -7.3794669295106885e-9
          -1.6446522330206322e-7 -2.1844878320704384e-7 -1.56822117458137e-7 3.292280313097306e-8 1.695576499356575e-7 7.185409433128752e-8
          -6.952488892749106e-8 -6.391632508603249e-8 -7.009434223832791e-9 5.506563579612055e-9 -6.87487929029762e-9 -2.466031044816151e-8
          4.009289910398233e-10 -2.9026651212498306e-7 1.0182785369886067e-7 5.792561468202398e-7 5.44590487596823e-7 2.8916211365711717e-7
          1.0430226262962978e-7 -1.7065884196071802e-9 -2.058196242456125e-8 -2.982059898722773e-9 4.349186444178745e-10 -1.284370496360532e-9
          9.06728977720759e-10 -4.1423810992991305e-9 -2.7582298893381125e-8 -4.684711908251442e-9 1.292786923523638e-7 2.8991406183434216e-7
          3.928275444835613e-7 2.889719387326469e-7 -1.7069995698577584e-7 -5.801871904296516e-7 -5.334888093569253e-7 -2.8979015707122366e-7
          -1.0827657687617322e-7 -2.9147449666128577e-9 1.2328662462618567e-8 2.579228160097902e-9 3.296253487440205e-8 3.403273866124878e-10
          -1.9842564952218928e-7 -2.8963793570353595e-7 4.009289910398224e-10 7.609306634024631e-9 -2.118574197470289e-7 4.8742804769858424e-8
          3.843713871252325e-7 3.899897342596394e-7 2.1126474089190056e-7 -6.136698259162129e-9 -1.5458759062793126e-7 -1.2646094364878916e-7
          -5.745131756472163e-8 -8.32532726187144e-8 -1.4714158531290873e-7 -1.9239103214944594e-7 -2.3374486707453286e-7 -2.859463440343763e-7
          -2.260961738136629e-7 6.870493280292084e-8 3.545412978801048e-7 3.874972434826187e-7 1.8973167070787945e-7 -2.165965193466962e-7
          -5.464007231964871e-7 -5.145943373568726e-7 -3.445235875923281e-7 -2.595346996673299e-7 -1.5929622005195208e-7 5.652330478373124e-8
          2.2086768674806587e-7 1.6668073774939758e-7 2.75154971953414e-8 -6.307499550648767e-8 -7.855547935921739e-8 7.609306634024631e-9
          -1.1915517701497241e-10 2.5217763558332045e-9 -5.2944461473803e-9 -3.9844440751344714e-9 2.6035161184091755e-8 -3.1097065541351174e-9
          -1.7929312347424839e-7 -2.9605494610978463e-7 -1.4693503099428032e-7 9.246854663474146e-10 -1.1961773313381873e-7 -2.961549088182263e-7
          -3.162794636103229e-7 -2.938499263414952e-7 -3.427248258431299e-7 -2.9449576981760136e-7 1.9245634032716232e-8 2.929227636157961e-7
          2.209589968396117e-7 -2.2469731138014687e-9 -1.8229645306240786e-7 -2.9130418537522015e-7 -3.013849124212512e-7 -2.933044113581282e-7
          -3.4782845934347904e-7 -2.9651548010915155e-7 2.9076102613005974e-8 2.935592636336377e-7 1.6154697776338755e-7 -1.0482662287166838e-9
          1.716860204263526e-7 2.989342525148387e-7 -1.1915517701497223e-10 -4.6108183076164755e-9 7.187886020834557e-8 3.2178370822638475e-8
          -5.532021106012819e-8 -1.2222481003534486e-7 -1.9632530358047718e-7 -3.0541156917299055e-7 -3.212737322910105e-7 -1.1570191841266232e-7
          3.8464489103022255e-8 -1.316138931029884e-7 -3.233599964796739e-7 -2.3419675247601406e-7 -9.480501619499451e-8 -1.3586564273960096e-7
          -1.7614644138321351e-7 -3.4415221399212116e-8 1.026989598510371e-7 4.856704500616808e-8 -6.89216665107811e-8 -1.2187787527677233e-7
          -1.2897277695063258e-7 -1.0887756719118898e-7 -1.415442761728595e-7 -3.069249340700621e-7 -3.96322299353105e-7 -2.0103913049229618e-7
          -6.901773326812307e-9 -9.97365736958301e-8 -1.4442180678506752e-7 1.941642522197576e-7 4.0958133711384226e-7 -4.6108183076164755e-9
          9.349385847748799e-11 -1.1680811110482067e-9 2.335662464020933e-8 8.593922353416516e-12 -1.4487119045451264e-7 -3.0072840407520107e-7
          -3.570087225245242e-7 -2.9995835493922095e-7 -1.1582351045603026e-7 -8.101556676900297e-10 -1.5112425716693813e-7 -2.999361148690232e-7
          -1.8041602868919385e-7 -5.747438671421e-10 3.157699435743986e-8 1.7090971510725937e-9 -4.508524319723254e-9 -7.81685949621108e-11
          1.9978657853417443e-9 1.1945527418265264e-9 -3.0131338048694537e-9 1.611969542922559e-9 2.7307026182871226e-8 1.1369353812402154e-9
          -1.4983340359570686e-7 -2.9779223027206255e-7 -3.149277841719196e-7 -3.0190935417992507e-7 -3.594062291807256e-7 -3.01467097568227e-7
          5.785935226366535e-8 2.98427942133163e-7 9.349385847748769e-11 1.0795779410037255e-8 -1.4433542307490773e-7 -1.6031800587459877e-7
          -1.473968066481524e-7 -2.1581666305468524e-7 -3.0124982480084225e-7 -3.393685415932687e-7 -3.139333599201063e-7 -2.087048262694969e-7
          -1.3466626971291348e-7 -2.0280101932182917e-7 -3.133526980196245e-7 -3.6656492872968003e-7 -3.1688277644915905e-7 -1.1875130617522471e-7
          8.593246507358415e-8 1.552715202787289e-7 1.545458402180359e-7 1.490354056693315e-7 1.5595411075013415e-7 1.925158495779622e-7
          1.9797327181760774e-7 1.1157902713386276e-7 3.26894759874076e-8 6.066097883892254e-8 7.626823476653941e-8 -3.971405715160998e-8
          -2.09087068622681e-7 -3.536519713538289e-7 -3.554672012695813e-7 -9.659119429446527e-8 1.2486636184193544e-7 1.0795779410037255e-8
          -1.6928137877241951e-10 -3.052194677788823e-7 -3.573868193047164e-7 -3.0485101064196256e-7 -2.957917164763087e-7 -3.0428549914270786e-7
          -3.0440892097611316e-7 -3.0385226925449585e-7 -3.103058312558274e-7 -3.0529805669224287e-7 -2.7035739527587754e-7 -3.038567901846807e-7
          -5.041691845966018e-7 -6.094623598646197e-7 -3.579040973417133e-7 -1.0904597741283743e-9 2.0938249009188917e-7 3.0470389157667745e-7
          3.160628840005746e-7 3.050175343383734e-7 3.331259095648662e-7 3.043729148142539e-7 1.2274345522073704e-7 -2.851730708067033e-10
          1.4676432608450035e-7 3.0471515860669286e-7 2.1439053041580558e-7 1.2467570165267483e-9 -2.0925984608645523e-7 -3.0350703986675383e-7
          -1.6787258529798231e-7 -6.591199465265807e-10 -1.6928137877241954e-10 -3.911716003447993e-8 -4.1311501606072147e-7 -3.7180877277450473e-7
          -2.2824561937861937e-7 -2.9547274507585523e-7 -3.781959171371445e-7 -2.811209028334196e-7 -1.9485713017195436e-7 -3.1001402716002253e-7
          -4.172830244956503e-7 -3.0735555287686347e-7 -1.9502349916672716e-7 -2.9507875022830623e-7 -4.215556494119005e-7 -3.884885400678095e-7
          -2.410680836212839e-7 -2.4484941497574372e-8 1.875397537771632e-7 3.2128486967677314e-7 3.6266879527217564e-7 2.97609919634291e-7
          1.7811566693203338e-7 5.619346133431704e-8 -2.2324885410050565e-8 -1.160756155226186e-8 3.037984188421053e-8 4.567173387589423e-8
          1.0381083348032336e-8 -9.937914077413185e-8 -1.7371961847005348e-7 -1.0275102971918761e-7 -1.5031001310880895e-8 -3.911716003447993e-8
          1.872292417760035e-10 -3.060307378031779e-7 -1.7878554149151432e-7 9.097208197053229e-10 -1.4795804822658007e-7 -3.0619740274772016e-7
          -1.5461689686106466e-7 7.504248800040897e-10 -1.4612848207789595e-7 -3.060108245849003e-7 -1.8965380949114433e-7 7.512188977938585e-10
          6.301291627633622e-8 1.6522801570967339e-9 -1.7880969194731084e-7 -3.0667175881224637e-7 -2.1023267921306987e-7 -7.148699800742232e-10
          2.1065925205644807e-7 3.062722019813415e-7 1.685064948794504e-7 -6.699373300322961e-10 7.108372720860825e-10 1.0674178176934295e-10
          -1.750243007050187e-7 -3.0778780022514686e-7 -1.8128926681548358e-7 -4.8964918706343775e-11 3.1412841022507575e-8 6.494055183377068e-10
          -4.78601692103644e-9 7.158666617853365e-11 1.872292417759981e-10 1.8484285544508218e-7 7.839313502161995e-8 1.4670800339235826e-7
          2.234445864462169e-7 1.4226001007211603e-7 6.130952506032404e-8 1.3874838220110918e-7 2.2246422670587287e-7 1.6034470378601672e-7
          8.520968024672599e-8 1.298790228931859e-7 2.2253529025423947e-7 2.9136104085872983e-7 2.905597009611049e-7 1.743346968158125e-7
          3.422652338977946e-8 -3.8224324350067285e-8 -2.8433462798412898e-8 7.818349165005779e-8 1.5126199240842798e-7 6.043749288978065e-8
          -3.528503073661284e-8 2.309939769851867e-8 5.623128977810181e-8 -1.1524884291493681e-7 -2.3953580939792743e-7 -6.482441868820007e-8
          1.7400788205220412e-7 2.4208364566124426e-7 1.8014976873027675e-7 2.8953147850657903e-8 -2.998842167770827e-8 1.848428554450822e-7
          3.077693832392092e-7 3.08213995186804e-7 3.079826103992665e-7 3.076793462736518e-7 3.079083202070154e-7 3.0817641211926484e-7
          3.079905019303076e-7 3.0775292509660994e-7 3.0786601707463813e-7 3.082525557901862e-7 3.088353191690485e-7 3.0775303048104e-7
          3.0314441299597534e-7 3.0778258858616674e-7 3.344406791239257e-7 3.082231208163954e-7 1.5423434987071906e-7 1.58727757963936e-10
          -2.631938405080243e-8 -1.5232973322941498e-10 3.7075465330336325e-9 8.711769524533078e-11 3.813256700664272e-9 3.4719318518832715e-10
          -2.4849843215284627e-8 2.891395425904793e-10 1.4783113350215872e-7 3.0781154975072224e-7 3.702657993755831e-7 3.0750212758060366e-7
          9.182877956964636e-8 -2.501625724360288e-10 3.077693832392092e-7 1.847409443682715e-7 2.8717325254700904e-8 8.917098252999256e-8
          1.8385138530883956e-7 1.305080027059349e-7 6.154268191262004e-8 1.0935727012023681e-7 1.540131006680919e-7 7.55715068954923e-8
          5.74959039408729e-9 7.6264452755526e-8 1.53897896630106e-7 1.0543172466812474e-7 3.53696653762087e-8 4.821544726098402e-8
          6.906164778455475e-8 2.3000844409025164e-8 -3.8049991671653274e-8 -6.217388926352883e-8 -4.933501782786275e-8 5.024531740837204e-10
          -1.2043987095929427e-9 -1.4299849593079632e-7 -2.397772300794012e-7 -1.0643799274528225e-7 8.030575910844215e-8 1.4374056851865366e-7
          1.7791438593903262e-7 2.7687516182325917e-7 3.394979706481479e-7 2.646578868905137e-7 1.7289288623550528e-7 1.8474094436827148e-7
          1.8579176462161291e-10 -3.0673142553900923e-7 -1.795715643698427e-7 3.5125039739229117e-10 -1.482771061120333e-7 -3.061941140213219e-7
          -1.5413725345367595e-7 -2.1509263734642153e-10 -1.5253619980058432e-7 -3.0713162585032604e-7 -1.6003242169350786e-7 -2.1692596300515742e-10
          -1.1666347729169327e-7 -3.0578468780681237e-7 -3.6399316963560275e-7 -3.061804020622683e-7 -1.472378643710132e-7 -8.505131406862963e-10
          1.9296695049863436e-8 -3.947198876333961e-10 2.6476761958553834e-8 -1.8922285345365752e-10 -1.8049303776553472e-7 -3.079059794805612e-7
          -1.7589934470140533e-7 5.610911967461275e-10 6.509552838706184e-9 6.137139545420536e-12 1.3911094101433448e-7 3.067345042777951e-7
          3.857873667446492e-7 3.067707290339177e-7 1.8579176462160718e-10 -3.881594504887062e-8 -2.285663778054733e-7 -1.5380049279885477e-7
          -7.349779285350448e-8 -2.4663778079391216e-7 -3.7888505064556057e-7 -1.7590419643393234e-7 4.51850500742304e-8 -3.273704288781445e-8
          -1.447020370771658e-7 -2.5741494250922467e-8 4.5569225633577844e-8 -2.093452373810025e-7 -5.024494365816319e-7 -5.457079252552788e-7
          -3.81752630055534e-7 -5.32154776359889e-8 2.1596298996319872e-7 2.0184223070187075e-7 8.269272868641953e-8 3.678496802323756e-8
          3.966114705434492e-8 6.686346412176174e-8 5.515068021603259e-8 -5.871844367229795e-8 -1.5526182182696977e-7 -1.1499736853172295e-7
          -1.1652328020667885e-9 1.2299443634648946e-7 2.2817410017926725e-7 2.8506621996158806e-7 2.2046985258751956e-7 -3.881594504887062e-8
          -1.6091195305065574e-10 -7.51901658023909e-10 2.8585364937347082e-8 -1.21147663152317e-9 -1.7920479082922024e-7 -3.043046471001025e-7
          -1.7542111488852823e-7 2.157215761240026e-9 2.3141754804939715e-8 1.6155371584263101e-9 5.1661597737555636e-8 2.1679920173587494e-9
          -3.1797722452713304e-7 -6.074578791871967e-7 -5.649577992541095e-7 -3.0433923773407806e-7 6.053555236669031e-8 3.0549364698526127e-7
          2.0636212205870036e-7 2.150623600801129e-9 -6.81312023746427e-8 1.1860993811186172e-9 2.1577198411683483e-7 3.0545946773650543e-7
          8.15661441299859e-11 -3.0337471700684774e-7 -2.0792237806298412e-7 9.259362074860731e-10 3.7657579036327834e-8 2.747420567441223e-9
          -3.32966905527365e-9 1.632242620467579e-9 -1.6091195305065657e-10 9.718566281235964e-9 4.246280348223517e-8 1.554998824907522e-7
          1.8311550492993824e-7 -4.040462757705552e-8 -2.987853270227482e-7 -3.757514053996589e-7 -3.627322510149195e-7 -3.511572521756621e-7
          -3.3697093873178103e-7 -3.161178405331706e-7 -3.641204613486279e-7 -5.565013049469499e-7 -6.873348433380443e-7 -5.506955485318195e-7
          -2.948733268147421e-7 -6.815808447327882e-8 1.575827788989424e-8 -1.56816140327899e-7 -3.49320584483187e-7 -3.2519429993249814e-7
          -1.9080760098989858e-7 -5.2530801969454634e-8 -2.020167892658254e-8 -2.0365800791669874e-7 -3.679397513554064e-7 -2.780868716583087e-7
          -1.6779482241846963e-7 -2.707590572289531e-7 -3.9761655375541683e-7 -3.590042896635189e-7 -2.0615000347679078e-7 9.718566281235962e-9
          5.216931484720505e-11 4.457228177931925e-11 1.9148805432305478e-7 3.002878509928632e-7 5.2349197845393887e-8 -3.006338598821955e-7
          -5.069672769527476e-7 -6.013371642230264e-7 -6.18429632549796e-7 -6.016312020389178e-7 -5.943283927962525e-7 -6.013904549316213e-7
          -6.276866385548437e-7 -6.030067244289534e-7 -4.5714049331698346e-7 -3.0049954145576487e-7 -2.4349546508212836e-7 -2.989557787517511e-7
          -4.797079970203104e-7 -6.004561694987572e-7 -4.759043457980428e-7 -3.009026127723494e-7 -2.703010572758594e-7 -3.0151263563602056e-7
          -3.119503041802806e-7 -3.0181259660770074e-7 -2.712980466173424e-7 -3.003252821107727e-7 -4.6881293098955885e-7 -6.014770417713372e-7
          -5.230336629737441e-7 -3.0026364310795694e-7 5.2169314847204985e-11 -7.334483595765003e-10 1.6380055232187705e-8 1.422464121647957e-7
          2.0354496645665174e-7 2.695506212616028e-8 -2.05196129015391e-7 -3.1058143515671463e-7 -3.240199644102834e-7 -2.803308248885701e-7
          -2.4340106056048774e-7 -2.7711771539494844e-7 -3.1901938029727784e-7 -3.066446461728004e-7 -2.6934779671562e-7 -2.3648311561983947e-7
          -2.175943904609424e-7 -2.2222540881441185e-7 -2.6578635967683425e-7 -3.636874320447962e-7 -4.114375622073149e-7 -3.045456864534076e-7
          -1.417148569088251e-7 -2.164812569931824e-8 2.5784564934195644e-8 -2.9286727249200963e-8 -1.13730343168593e-7 -1.5441462374306556e-7
          -1.9191955017654922e-7 -2.668251036729743e-7 -3.264478833627874e-7 -3.1810448837643504e-7 -2.1759848721000298e-7 -7.334483595765001e-10
          6.664878754303588e-11 1.287916109116217e-9 1.8584814189598895e-9 2.6211373080215462e-9 4.4186763672487365e-9 -3.5347974164455424e-9
          -3.2025180056148367e-8 -9.772113834016693e-10 1.696843687702525e-7 2.898519065126647e-7 1.6941774795168574e-7 -7.375715962556515e-10
          -2.9733516814730712e-8 -8.51859367434475e-10 2.625629081938394e-9 -4.123921657319093e-9 -5.923381775913588e-9 -4.06895173655547e-9
          1.4316799804499268e-10 -5.2826168827338334e-9 -3.2341900689513566e-8 4.4325096982885175e-10 1.745507724874166e-7 2.968356880075419e-7
          1.7415302167449687e-7 3.80256708110937e-10 -3.06051236717867e-8 -1.8655808752354317e-9 3.5364236877252944e-9 -1.4739897206953185e-9
          -3.971700838288002e-9 -3.5827934179196396e-9 6.664878754303596e-11 -6.2310886082266104e-9 -1.3768503623004973e-7 -2.1365981586524883e-7
          -1.6448887208454524e-7 7.949435054134004e-8 2.429294341735635e-7 5.045596097328171e-8 -9.873532491741731e-8 1.94546320643555e-7
          4.601352437554985e-7 2.2786579051771312e-7 -1.1658604981679067e-7 -1.8754428799500276e-7 -7.703732135426895e-8 1.22906452768065e-7
          2.8675062052371287e-7 2.889587680643887e-7 2.5324055399911676e-7 3.0330563693692165e-7 2.944013166565437e-7 8.177489293672338e-8
          -1.3602044087908433e-7 -1.6043149144742398e-7 -1.1544922207526476e-7 -1.2506459606957548e-7 -1.1386026822883022e-7 -6.418893351502844e-9
          7.024748840424956e-8 -1.0873163119730129e-8 -5.699761348397792e-8 1.2465737175097022e-7 2.39707608178444e-7 -6.231088608226612e-9
          -3.8388240323615003e-10 -2.8648849483122886e-7 -3.934468397869351e-7 -2.8625924415521035e-7 7.007396517909041e-8 2.9095764128828187e-7
          -8.203362755321099e-9 -2.8741062317027256e-7 -6.665716175125695e-9 2.929308014312106e-7 7.027837284982742e-8 -2.884228413135319e-7
          -3.9697268045312416e-7 -2.8543155651065193e-7 1.6140118572182094e-8 2.934409944621592e-7 3.3216972082606066e-7 2.9083121201953964e-7
          3.279303823982494e-7 2.9197724606004634e-7 3.148181710278721e-8 -2.8787178678235247e-7 -5.003994479041969e-7 -5.740650473256747e-7
          -4.7683246610971423e-7 -2.861938164914941e-7 -7.964121070619273e-8 2.3255913317680613e-9 -1.8079317029203362e-7 -2.8492973086807957e-7
          3.398367431314841e-8 2.906109791639847e-7 -3.838824032361492e-10 2.4309216352737837e-8 -3.2359691703980054e-7 -4.3250941419902865e-7
          -3.5829860167375106e-7 -1.5683480601277222e-7 -6.728689454894986e-9 -8.659091423892227e-8 -1.950794999319688e-7 -1.3085246610114922e-7
          -3.3790906913118416e-8 -4.377591653453172e-8 -1.3192053606708143e-7 -2.6933780661246034e-7 -3.6176849465744387e-7 -3.149533666888081e-7
          -1.961352084394133e-7 -7.255680564212013e-8 9.452553522579768e-9 3.563580874194675e-9 -4.8202893004156735e-8 -1.0382603752935552e-7
          -1.8558130456933777e-7 -3.157441459920393e-7 -4.1648564583323687e-7 -4.099768881287064e-7 -3.2966615660385624e-7 -2.09001734984094e-7
          -1.6024878250243525e-7 -2.956724583918957e-7 -3.856814580128051e-7 -2.006844767254935e-7 1.6813932414775404e-8 2.430921635273784e-8
          1.5812960648588973e-9 -2.8140241822342066e-7 -3.269713496054342e-7 -2.841508773470047e-7 -3.0196638071395475e-7 -2.788620845148121e-7
          -1.1328221355810461e-7 -2.523313247033988e-9 -1.4388192898480232e-7 -2.782406036101224e-7 -1.464818799617074e-7 1.562271595482137e-9
          -8.394011930351453e-8 -2.831856768199552e-7 -4.7637102511509757e-7 -5.607779505751555e-7 -4.336882395863433e-7 -2.776105840498819e-7
          -2.7505367586699255e-7 -2.8099806350484503e-7 -1.5042429543060893e-7 -2.3849328120468347e-9 4.4067463183078435e-8 -6.234558539477911e-9
          -1.484584490739604e-7 -2.814908417585081e-7 -3.042183699312603e-7 -2.795527814431651e-7 -2.704058241451707e-7 -2.84549821717669e-7
          -3.2975709784105217e-7 -2.772919570639871e-7 1.581296064858899e-9 -1.1927197020495358e-7 -1.9934439449036631e-7 -1.0210441093913828e-7
          -1.1631905240660474e-8 -1.1200676308432371e-7 -1.9260462196875317e-7 -4.280111939257394e-8 8.593276171616158e-8 -5.787396157059904e-8
          -2.5196381245645764e-7 -2.7407931414501636e-7 -2.0228914835400397e-7 -1.1466199680114942e-7 -7.671133194842507e-8 -1.5395062625780355e-7
          -2.5613096583367895e-7 -2.9300343678044553e-7 -2.6244869744233745e-7 -1.6234740616358888e-7 -4.9402503013291356e-8 1.9683071939463867e-8
          8.362981267028927e-8 1.8115821315479749e-7 1.9671229894152076e-7 1.4736095578991629e-8 -1.978728360595719e-7 -2.7421693510095206e-7
          -2.301263417988434e-7 -8.143119640694052e-8 -4.992610040712889e-9 -1.7767169381563024e-7 -3.1169072233570587e-7 -1.1927197020495358e-7
          -2.690170271277402e-7 -4.517371150863539e-9 1.996275507218232e-7 2.672890559809252e-7 1.2233846211704783e-7 -2.845451970697566e-9
          1.241160926168004e-7 2.6686335754268633e-7 1.8903660447010487e-7 -5.470377295107147e-9 -2.1276379844711298e-7 -2.7315551295876106e-7
          -2.6957374802899455e-8 2.645605297336061e-7 3.401281143638903e-7 2.6303895861641577e-7 9.658664201964545e-8 -5.6602722084196215e-9
          1.0986677915022155e-7 2.6706975086534296e-7 2.8985059770671856e-7 2.6682164813814636e-7 2.8659523062342455e-7 2.704195722707852e-7
          1.395429001884606e-7 -4.490719312428755e-9 -6.013721992076222e-8 -5.074872279736985e-9 1.830180529674498e-7 2.6740930225812804e-7
          1.1366622029627385e-8 -2.718591127537595e-7 -2.690170271277402e-7 -3.1738270213918256e-7 2.585300257802521e-7 4.243644528615509e-7
          3.2551088407400303e-7 1.0735962438689768e-7 1.3384686050605157e-8 2.8706008131549575e-7 5.647941415923813e-7 4.829951982920738e-7
          2.6301285950099523e-7 1.2619673330556752e-7 1.3887654247254103e-7 3.6738200976866597e-7 5.756263846140696e-7 5.27522916428879e-7
          3.832722312588343e-7 3.0307495514967596e-7 2.639061038162993e-7 2.4274069297359977e-7 2.8877310349506327e-7 4.511977162541754e-7
          5.649903379404031e-7 4.65126775243213e-7 3.107852875263978e-7 2.6114413415375044e-7 2.584046585297087e-7 2.4476820405871e-7
          2.61152448389972e-7 3.4847506917271236e-7 3.2494525910978417e-7 8.772210904040288e-9 -3.040138509953412e-7 -3.1738270213918256e-7
          0 0 1.2556156949666403e-10 2.5849394142282115e-26 -7.53369416979984e-10 2.0679515313825692e-25
          4.394654932383241e-9 1.6543612251060553e-24 -2.5614560177319452e-8 1.3234889800848443e-23 1.4929270613153353e-7 2.6235424089603697e-7
          1.792752869722661e-7 -6.617444900424222e-24 -1.755274643809824e-7 -2.6235424089603697e-7 -1.7552746427051985e-7 -6.617444900424222e-24
          1.7927528641995332e-7 2.623542408960369e-7 1.4929270933494755e-7 -1.613002194478404e-23 -2.5614578845491016e-8 -2.5849394142282115e-26
          4.394763737998459e-9 4.8467614016778965e-25 -7.540035824997352e-10 8.885729236409477e-27 1.292577569999546e-10 1.0097419586828951e-27
          -2.1542959499992436e-11 -8.077935669463161e-28 0
        </DataArray>
        <DataArray type="Float64" Name="P2" format="ascii" RangeMin="-6.873348433380443e-7" RangeMax="5.792561468202398e-7">
          0 0 1.2556156949666403e-10 2.5849394142282115e-26 -7.53369416979984e-10 2.0679515313825692e-25
          4.394654932383241e-9 1.6543612251060553e-24 -2.5614560177319452e-8 1.3234889800848443e-23 1.4929270613153353e-7 2.6235424089603697e-7
          1.792752869722661e-7 -6.617444900424222e-24 -1.755274643809824e-7 -2.6235424089603697e-7 -1.7552746427051985e-7 -6.617444900424222e-24
          1.7927528641995332e-7 2.623542408960369e-7 1.4929270933494755e-7 -1.613002194478404e-23 -2.5614578845491016e-8 -2.5849394142282115e-26
          4.394763737998459e-9 4.8467614016778965e-25 -7.540035824997352e-10 8.885729236409477e-27 1.292577569999546e-10 1.0097419586828951e-27
          -2.1542959499992436e-11 -8.077935669463161e-28 0 3.1737544987949507e-7 3.038673017592444e-7 3.170415682400152e-7
          3.337724762091e-7 3.3093425255379123e-7 3.2002037877598305e-7 3.125243363775697e-7 2.5119367690881e-7 7.877595191996308e-8
          -7.748392212347908e-8 -9.034102875602434e-8 -4.117740496248561e-8 -1.137508772767573e-8 -9.911887682346361e-9 -4.5765615457249145e-8
          -3.5035725425123816e-8 1.0617832804128994e-7 2.5262208158062084e-7 2.790410718314973e-7 2.7837746185721284e-7 3.435734147210603e-7
          3.01715665072912e-7 -2.0109052437360014e-8 -2.5267479532773725e-7 -2.6755621116201393e-8 3.0711184988111563e-7 3.98390997348082e-7
          3.1644871947259887e-7 1.3065191444256739e-7 -1.447880722508278e-10 8.291324159790588e-8 2.365214915496252e-7 3.1737544987949507e-7
          2.690185688864742e-7 2.718902676729768e-7 2.6594030091580015e-7 2.655327231440525e-7 2.850315888868418e-7 2.6845628314346814e-7
          1.598261909132317e-7 -2.957735887470658e-9 -1.819945453422418e-7 -2.695735795655728e-7 -1.5798418067195466e-7 7.245151506201176e-10
          5.450337171415896e-8 2.1071693600007378e-9 -1.577093115705157e-7 -2.705682524797372e-7 -1.8209183477001083e-7 -3.2614006034743465e-9
          1.549417078577342e-7 2.6927976153524215e-7 3.165150313506768e-7 2.723476843674142e-7 1.1247788764883078e-7 3.272607025130057e-9
          1.1109880832651576e-7 2.7120050880881676e-7 3.188217257278624e-7 2.6921558261190913e-7 1.3763520298921404e-7 3.0780513189541123e-11
          -6.764749116275173e-8 1.614257116049328e-10 2.6901856888647414e-7 1.193570970928725e-7 3.134109145148433e-7 1.2302679966306564e-7
          -1.086063184584589e-7 -3.8299510845728935e-8 8.831097141328292e-8 2.558887723060402e-8 -7.773504066140063e-8 -7.293002953036616e-8
          -2.8932294753936028e-8 -1.4678041709753612e-8 1.4341629805490112e-8 1.0263561999510439e-7 1.518409799880557e-7 6.359476091331047e-8
          -5.819045407247933e-8 -1.0960208181266164e-7 -9.450162785443576e-8 -1.6750597745000857e-8 1.0811677181305904e-7 2.6456624411716e-7
          3.3866678550229936e-7 2.1648736230347437e-7 9.512038082741231e-8 1.7165824738084024e-7 2.7532646963662813e-7 2.3535055526764592e-7
          1.3023504119254104e-7 3.848446432996104e-8 1.699519671009126e-9 6.148090220678864e-8 1.2998222399488225e-7 1.193570970928725e-7
          -1.5864112000810168e-9 2.771885935343264e-7 3.1432933898436594e-8 -2.7832384374078647e-7 -1.9155219301637853e-7 2.7909962566160204e-10
          5.701247739335279e-9 1.7256556344141548e-9 1.6536372762066994e-7 2.836429980669009e-7 1.4359100134190544e-7 2.1475468287930744e-11
          1.0774815846865284e-7 2.8131150497379325e-7 3.3525196961450206e-7 2.8451783241763175e-7 1.4405737341003505e-7 2.7331323882665013e-9
          -5.0592350851119034e-8 -2.7757964498622813e-11 1.703182293917507e-7 2.7567100962621144e-7 1.3125598114746622e-7 -2.770312240640438e-9
          1.3374867326573596e-7 2.79477025429048e-7 1.730788320117481e-7 -2.2400490384763037e-9 -6.327375977393776e-8 -1.021213525176541e-10