<?xml version="1.0"?>
<VTKFile type="UnstructuredGrid" version="0.1" byte_order="LittleEndian" header_type="UInt32" compressor="vtkZLibDataCompressor">
  <UnstructuredGrid>
    <Piece NumberOfPoints="60" NumberOfCells="24">
      <PointData>
        <DataArray type="Float32" Name="ps" format="ascii" RangeMin="99987.4453125" RangeMax="100000">
          100000 99997.8984375 99994.46875 99990.5 99987.4453125 100000
          99997.8984375 99994.46875 99990.5 99987.4453125 100000 99997.8984375
          99994.46875 99990.5 99987.4453125 100000 99997.8984375 99994.46875
          99990.5 99987.4453125 100000 99997.8984375 99994.46875 99990.5
          99987.4453125 100000 99997.8984375 99994.46875 99990.5 99987.4453125
          100000 99997.8984375 99994.46875 99990.5 99987.4453125 100000
          99997.8984375 99994.46875 99990.5 99987.4453125 100000 99997.8984375
          99994.46875 99990.5 99987.4453125 100000 99997.8984375 99994.46875
          99990.5 99987.4453125 100000 99997.8984375 99994.46875 99990.5
          99987.4453125 100000 99997.8984375 99994.46875 99990.5 99987.4453125
        </DataArray>
        <DataArray type="Float32" Name="pt" format="ascii" RangeMin="272.29998779296875" RangeMax="272.3006896972656">
          272.29998779296875 272.30010986328125 272.30029296875 272.3005065917969 272.3006896972656 272.29998779296875
          272.30010986328125 272.30029296875 272.3005065917969 272.3006896972656 272.29998779296875 272.30010986328125
          272.30029296875 272.3005065917969 272.3006896972656 272.29998779296875 272.30010986328125 272.30029296875
          272.3005065917969 272.3006896972656 272.29998779296875 272.30010986328125 272.30029296875 272.3005065917969
          272.3006896972656 272.29998779296875 272.30010986328125 272.30029296875 272.3005065917969 272.3006896972656
          272.29998779296875 272.30010986328125 272.30029296875 272.3005065917969 272.3006896972656 272.29998779296875
          272.30010986328125 272.30029296875 272.3005065917969 272.3006896972656 272.29998779296875 272.30010986328125
          272.30029296875 272.3005065917969 272.3006896972656 272.29998779296875 272.30010986328125 272.30029296875
          272.3005065917969 272.3006896972656 272.29998779296875 272.30010986328125 272.30029296875 272.3005065917969
          272.3006896972656 272.29998779296875 272.30010986328125 272.30029296875 272.3005065917969 272.3006896972656
        </DataArray>
        <DataArray type="Float32" Name="pts" format="ascii" RangeMin="272.29998779296875" RangeMax="272.3006896972656">
          272.29998779296875 272.3000793457031 272.30029296875 272.3005065917969 272.3006896972656 272.29998779296875
          272.3000793457031 272.30029296875 272.3005065917969 272.3006896972656 272.29998779296875 272.3000793457031
          272.30029296875 272.3005065917969 272.3006896972656 272.29998779296875 272.3000793457031 272.30029296875
          272.3005065917969 272.3006896972656 272.29998779296875 272.3000793457031 272.30029296875 272.3005065917969
          272.3006896972656 272.29998779296875 272.3000793457031 272.30029296875 272.3005065917969 272.3006896972656
          272.29998779296875 272.3000793457031 272.30029296875 272.3005065917969 272.3006896972656 272.29998779296875
          272.3000793457031 272.30029296875 272.3005065917969 272.3006896972656 272.29998779296875 272.3000793457031
          272.30029296875 272.3005065917969 272.3006896972656 272.29998779296875 272.3000793457031 272.30029296875
          272.3005065917969 272.3006896972656 272.29998779296875 272.3000793457031 272.30029296875 272.3005065917969
          272.3006896972656 272.29998779296875 272.3000793457031 272.30029296875 272.3005065917969 272.3006896972656
        </DataArray>
        <DataArray type="Float32" Name="rho" format="ascii" RangeMin="1.2794709205627441" RangeMax="1.2795889377593994">
          1.2795889377593994 1.279569149017334 1.2795369625091553 1.2794997692108154 1.2794709205627441 1.2795889377593994
          1.279569149017334 1.2795369625091553 1.2794997692108154 1.2794709205627441 1.2795889377593994 1.279569149017334
          1.2795369625091553 1.2794997692108154 1.2794709205627441 1.2795889377593994 1.279569149017334 1.2795369625091553
          1.2794997692108154 1.2794709205627441 1.2795889377593994 1.279569149017334 1.2795369625091553 1.2794997692108154
          1.2794709205627441 1.2795889377593994 1.279569149017334 1.2795369625091553 1.2794997692108154 1.2794709205627441
          1.2795889377593994 1.279569149017334 1.2795369625091553 1.2794997692108154 1.2794709205627441 1.2795889377593994
          1.279569149017334 1.2795369625091553 1.2794997692108154 1.2794709205627441 1.2795889377593994 1.279569149017334
          1.2795369625091553 1.2794997692108154 1.2794709205627441 1.2795889377593994 1.279569149017334 1.2795369625091553
          1.2794997692108154 1.2794709205627441 1.2795889377593994 1.279569149017334 1.2795369625091553 1.2794997692108154
          1.2794709205627441 1.2795889377593994 1.279569149017334 1.2795369625091553 1.2794997692108154 1.2794709205627441
        </DataArray>
        <DataArray type="Float32" Name="rhos" format="ascii" RangeMin="1.2794709205627441" RangeMax="1.2795889377593994">
          1.2795889377593994 1.279569149017334 1.2795369625091553 1.2794997692108154 1.2794709205627441 1.2795889377593994
          1.279569149017334 1.2795369625091553 1.2794997692108154 1.2794709205627441 1.2795889377593994 1.279569149017334
          1.2795369625091553 1.2794997692108154 1.2794709205627441 1.2795889377593994 1.279569149017334 1.2795369625091553
          1.2794997692108154 1.2794709205627441 1.2795889377593994 1.279569149017334 1.2795369625091553 1.2794997692108154
          1.2794709205627441 1.2795889377593994 1.279569149017334 1.2795369625091553 1.2794997692108154 1.2794709205627441
          1.2795889377593994 1.279569149017334 1.2795369625091553 1.2794997692108154 1.2794709205627441 1.2795889377593994
          1.279569149017334 1.2795369625091553 1.2794997692108154 1.2794709205627441 1.2795889377593994 1.279569149017334
          1.2795369625091553 1.2794997692108154 1.2794709205627441 1.2795889377593994 1.279569149017334 1.2795369625091553
          1.2794997692108154 1.2794709205627441 1.2795889377593994 1.279569149017334 1.2795369625091553 1.2794997692108154
          1.2794709205627441 1.2795889377593994 1.279569149017334 1.2795369625091553 1.2794997692108154 1.2794709205627441
        </DataArray>
        <DataArray type="Float32" Name="strat" format="ascii" RangeMin="0" RangeMax="0">
          0 0 0 0 0 0
          0 0 0 0 0 0
          0 0 0 0 0 0
          0 0 0 0 0 0
          0 0 0 0 0 0
          0 0 0 0 0 0
          0 0 0 0 0 0
          0 0 0 0 0 0
          0 0 0 0 0 0
          0 0 0 0 0 0
        </DataArray>
        <DataArray type="Float32" Name="td" format="ascii" RangeMin="1.562448263168335" RangeMax="2.821387529373169">
          2.5051915645599365 2.821387529373169 2.1786201000213623 1.701120138168335 1.562448263168335 2.5051915645599365
          2.821387529373169 2.1786201000213623 1.701120138168335 1.562448263168335 2.5051915645599365 2.821387529373169
          2.1786201000213623 1.701120138168335 1.562448263168335 2.5051915645599365 2.821387529373169 2.1786201000213623
          1.701120138168335 1.562448263168335 2.5051915645599365 2.821387529373169 2.1786201000213623 1.701120138168335
          1.562448263168335 2.5051915645599365 2.821387529373169 2.1786201000213623 1.701120138168335 1.562448263168335
          2.5051915645599365 2.821387529373169 2.1786201000213623 1.701120138168335 1.562448263168335 2.5051915645599365
          2.821387529373169 2.1786201000213623 1.701120138168335 1.562448263168335 2.5051915645599365 2.821387529373169
          2.1786201000213623 1.701120138168335 1.562448263168335 2.5051915645599365 2.821387529373169 2.1786201000213623
          1.701120138168335 1.562448263168335 2.5051915645599365 2.821387529373169 2.1786201000213623 1.701120138168335
          1.562448263168335 2.5051915645599365 2.821387529373169 2.1786201000213623 1.701120138168335 1.562448263168335
        </DataArray>
        <DataArray type="Float32" Name="tk" format="ascii" RangeMin="1.5447070598602295" RangeMax="2.993133306503296">
          1.5447070598602295 2.246598482131958 2.569445848464966 2.7600953578948975 2.993133306503296 1.5447070598602295
          2.246598482131958 2.569445848464966 2.7600953578948975 2.993133306503296 1.5447070598602295 2.246598482131958
          2.569445848464966 2.7600953578948975 2.993133306503296 1.5447070598602295 2.246598482131958 2.569445848464966
          2.7600953578948975 2.993133306503296 1.5447070598602295 2.246598482131958 2.569445848464966 2.7600953578948975
          2.993133306503296 1.5447070598602295 2.246598482131958 2.569445848464966 2.7600953578948975 2.993133306503296
          1.5447070598602295 2.246598482131958 2.569445848464966 2.7600953578948975 2.993133306503296 1.5447070598602295
          2.246598482131958 2.569445848464966 2.7600953578948975 2.993133306503296 1.5447070598602295 2.246598482131958
          2.569445848464966 2.7600953578948975 2.993133306503296 1.5447070598602295 2.246598482131958 2.569445848464966
          2.7600953578948975 2.993133306503296 1.5447070598602295 2.246598482131958 2.569445848464966 2.7600953578948975
          2.993133306503296 1.5447070598602295 2.246598482131958 2.569445848464966 2.7600953578948975 2.993133306503296
        </DataArray>
        <DataArray type="Float32" Name="u" NumberOfComponents="3" format="ascii" RangeMin="0" RangeMax="1">
          0 0 0 0.16740000247955322 0 0
          0.4406999945640564 0 0 0.7567999958992004 0 0
          1 0 0 0 0 0
          0.16740000247955322 0 0 0.4406999945640564 0 0
          0.7567999958992004 0 0 1 0 0
          0 0 0 0.16740000247955322 0 0
          0.4406999945640564 0 0 0.7567999958992004 0 0
          1 0 0 0 0 0
          0.16740000247955322 0 0 0.4406999945640564 0 0
          0.7567999958992004 0 0 1 0 0
          0 0 0 0.16740000247955322 0 0
          0.4406999945640564 0 0 0.7567999958992004 0 0
          1 0 0 0 0 0
          0.16649791598320007 0.00009740347741171718 -0.00012115277058910578 0.4387061595916748 -0.0002934813965111971 -0.0002905113506130874
          0.7554635405540466 0.00011009108857251704 -0.00007629633182659745 1 0 0
          0 0 0 0.1664629727602005 -0.0001769309601513669 0.00005437870277091861
          0.43864965438842773 0.00023090277682058513 -0.0002584175381343812 0.7555195093154907 -0.00008642328612040728 -0.00002914156357292086
          1 0 0 0 0 0
          0.16740000247955322 0 0 0.4406999945640564 0 0
          0.7567999958992004 0 0 1 0 0
          0 0 0 0.16740000247955322 0 0
          0.4406999945640564 0 0 0.7567999958992004 0 0
          1 0 0 0 0 0
          0.16469977796077728 -0.0009241196676157415 0.00018133771663997322 0.43532198667526245 0.0013246600283309817 -0.0002629681839607656
          0.7531003355979919 -0.0005768685368821025 -0.00011283168714726344 1 0 0
          0 0 0 0.16477985680103302 0.0008633240358904004 0.00004313986573833972
          0.43541577458381653 -0.001435289392247796 -0.00008021971007110551 0.7530074715614319 0.000591659510973841 -0.00016904075164347887
          1 0 0 0 0 0
          0.16740000247955322 0 0 0.4406999945640564 0 0
          0.7567999958992004 0 0 1 0 0
          <InformationKey name="L2_NORM_RANGE" location="vtkDataArray" length="2">
            <Value index="0">
              0
            </Value>
            <Value index="1">
              1
            </Value>
          </InformationKey>
        </DataArray>
        <DataArray type="Float32" Name="u_x" format="ascii" RangeMin="0" RangeMax="1">
          0 0.16740000247955322 0.4406999945640564 0.7567999958992004 1 0
          0.16740000247955322 0.4406999945640564 0.7567999958992004 1 0 0.16740000247955322
          0.4406999945640564 0.7567999958992004 1 0 0.16740000247955322 0.4406999945640564
          0.7567999958992004 1 0 0.16740000247955322 0.4406999945640564 0.7567999958992004
          1 0 0.16649791598320007 0.4387061595916748 0.7554635405540466 1
          0 0.1664629727602005 0.43864965438842773 0.7555195093154907 1 0
          0.16740000247955322 0.4406999945640564 0.7567999958992004 1 0 0.16740000247955322
          0.4406999945640564 0.7567999958992004 1 0 0.16469977796077728 0.43532198667526245
          0.7531003355979919 1 0 0.16477985680103302 0.43541577458381653 0.7530074715614319
          1 0 0.16740000247955322 0.4406999945640564 0.7567999958992004 1
        </DataArray>
        <DataArray type="Float32" Name="u_y" format="ascii" RangeMin="-0.001435289392247796" RangeMax="0.0013246600283309817">
          0 0 0 0 0 0
          0 0 0 0 0 0
          0 0 0 0 0 0
          0 0 0 0 0 0
          0 0 0.00009740347741171718 -0.0002934813965111971 0.00011009108857251704 0
          0 -0.0001769309601513669 0.00023090277682058513 -0.00008642328612040728 0 0
          0 0 0 0 0 0
          0 0 0 0 -0.0009241196676157415 0.0013246600283309817
          -0.0005768685368821025 0 0 0.0008633240358904004 -0.001435289392247796 0.000591659510973841
          0 0 0 0 0 0
        </DataArray>
        <DataArray type="Float32" Name="u_z" format="ascii" RangeMin="-0.0002905113506130874" RangeMax="0.00018133771663997322">
          0 0 0 0 0 0
          0 0 0 0 0 0
          0 0 0 0 0 0
          0 0 0 0 0 0
          0 0 -0.00012115277058910578 -0.0002905113506130874 -0.00007629633182659745 0
          0 0.00005437870277091861 -0.0002584175381343812 -0.00002914156357292086 0 0
          0 0 0 0 0 0
          0 0 0 0 0.00018133771663997322 -0.0002629681839607656
          -0.00011283168714726344 0 0 0.00004313986573833972 -0.00008021971007110551 -0.00016904075164347887
          0 0 0 0 0 0
        </DataArray>
        <DataArray type="Float32" Name="vtef" format="ascii" RangeMin="1" RangeMax="1">
          1 1 1 1 1 1
          1 1 1 1 1 1
          1 1 1 1 1 1
          1 1 1 1 1 1
          1 1 1 1 1 1
          1 1 1 1 1 1
          1 1 1 1 1 1
          1 1 1 1 1 1
          1 1 1 1 1 1
          1 1 1 1 1 1
        </DataArray>
      </PointData>
      <CellData>
      </CellData>
      <Points>
        <DataArray type="Float32" Name="Points" NumberOfComponents="3" format="ascii" RangeMin="0" RangeMax="1.7320508763943954">
          0 0 0 0 0 0.16737312078475952
          0 0 0.4407181441783905 0 0 0.7568185925483704
          0 0 1.0000001192092896 -5.782999961882359e-20 0.33329999446868896 0
          -5.782999961882359e-20 0.33329999446868896 0.16737312078475952 -5.782999961882359e-20 0.33329999446868896 0.4407181441783905
          -5.782999961882359e-20 0.33329999446868896 0.7568185925483704 -5.782999961882359e-20 0.33329999446868896 1.0000001192092896
          -2.891000118281953e-20 0.666700005531311 0 -2.891000118281953e-20 0.666700005531311 0.16737312078475952
          -2.891000118281953e-20 0.666700005531311 0.4407181441783905 -2.891000118281953e-20 0.666700005531311 0.7568185925483704
          -2.891000118281953e-20 0.666700005531311 1.0000001192092896 0 1 0
          0 1 0.16737312078475952 0 1 0.4407181441783905
          0 1 0.7568185925483704 0 1 1.0000001192092896
          0.5 0 0 0.5 0 0.16737312078475952
          0.5 0 0.4407181441783905 0.5 0 0.7568185925483704
          0.5 0 1.0000001192092896 0.5 0.33329999446868896 0
          0.5 0.33329999446868896 0.16737312078475952 0.5 0.33329999446868896 0.4407181441783905
          0.5 0.33329999446868896 0.7568185925483704 0.5 0.33329999446868896 1.0000001192092896
          0.5 0.666700005531311 0 0.5 0.666700005531311 0.16737312078475952
          0.5 0.666700005531311 0.4407181441783905 0.5 0.666700005531311 0.7568185925483704
          0.5 0.666700005531311 1.0000001192092896 0.5 1 0
          0.5 1 0.16737312078475952 0.5 1 0.4407181441783905
          0.5 1 0.7568185925483704 0.5 1 1.0000001192092896
          1 0 0 1 0 0.16737312078475952
          1 0 0.4407181441783905 1 0 0.7568185925483704
          1 0 1.0000001192092896 1 0.33329999446868896 0
          1 0.33329999446868896 0.16737312078475952 1 0.33329999446868896 0.4407181441783905
          1 0.33329999446868896 0.7568185925483704 1 0.33329999446868896 1.0000001192092896
          1 0.666700005531311 0 1 0.666700005531311 0.16737312078475952
          1 0.666700005531311 0.4407181441783905 1 0.666700005531311 0.7568185925483704
          1 0.666700005531311 1.0000001192092896 1 1 0
          1 1 0.16737312078475952 1 1 0.4407181441783905
          1 1 0.7568185925483704 1 1 1.0000001192092896
          <InformationKey name="L2_NORM_RANGE" location="vtkDataArray" length="2">
            <Value index="0">
              0
            </Value>
            <Value index="1">
              1.7320508764
            </Value>
          </InformationKey>
        </DataArray>
      </Points>
      <Cells>
        <DataArray type="Int64" Name="connectivity" format="ascii" RangeMin="0" RangeMax="59">
          0 20 25 5 1 21
          26 6 1 21 26 6
          2 22 27 7 2 22
          27 7 3 23 28 8
          3 23 28 8 4 24
          29 9 5 25 30 10
          6 26 31 11 6 26
          31 11 7 27 32 12
          7 27 32 12 8 28
          33 13 8 28 33 13
          9 29 34 14 10 30
          35 15 11 31 36 16
          11 31 36 16 12 32
          37 17 12 32 37 17
          13 33 38 18 13 33
          38 18 14 34 39 19
          20 40 45 25 21 41
          46 26 21 41 46 26
          22 42 47 27 22 42
          47 27 23 43 48 28
          23 43 48 28 24 44
          49 29 25 45 50 30
          26 46 51 31 26 46
          51 31 27 47 52 32
          27 47 52 32 28 48
          53 33 28 48 53 33
          29 49 54 34 30 50
          55 35 31 51 56 36
          31 51 56 36 32 52
          57 37 32 52 57 37
          33 53 58 38 33 53
          58 38 34 54 59 39
        </DataArray>
        <DataArray type="Int64" Name="offsets" format="ascii" RangeMin="8" RangeMax="192">
          8 16 24 32 40 48
          56 64 72 80 88 96
          104 112 120 128 136 144
          152 160 168 176 184 192
        </DataArray>
        <DataArray type="UInt8" Name="types" format="ascii" RangeMin="12" RangeMax="12">
          12 12 12 12 12 12
          12 12 12 12 12 12
          12 12 12 12 12 12
          12 12 12 12 12 12
        </DataArray>
      </Cells>
    </Piece>
  </UnstructuredGrid>
</VTKFile>
